# vtk DataFile Version 4.2
vtk output
ASCII
DATASET UNSTRUCTURED_GRID
POINTS 1290 float
6.9896e-06 6.8708e-06 7.0000e-06 7.0000e-06 6.7151e-06 6.3957e-06 7.0000e-06 6.7088e-06 5.7866e-06
7.0000e-06 6.7118e-06 5.1983e-06 7.0000e-06 6.7290e-06 4.7819e-06 7.0000e-06 6.7501e-06 4.2538e-06
7.0000e-06 6.6715e-06 3.5465e-06 7.0000e-06 6.7213e-06 3.0304e-06 7.0000e-06 6.7197e-06 2.2184e-06
7.0000e-06 6.4858e-06 1.5480e-06 7.0000e-06 6.6810e-06 1.1970e-06 7.0000e-06 6.7982e-06 6.9054e-07
7.0000e-06 6.7653e-06 2.7127e-07 7.0000e-06 6.3129e-06 6.3975e-06 7.0000e-06 6.2792e-06 5.9884e-06
7.0000e-06 6.3771e-06 5.5626e-06 7.0000e-06 6.3382e-06 4.9466e-06 7.0000e-06 6.2803e-06 4.3467e-06
7.0000e-06 6.3520e-06 3.9335e-06 7.0000e-06 6.3184e-06 3.1769e-06 7.0000e-06 6.3865e-06 2.4744e-06
7.0000e-06 6.3530e-06 1.9779e-06 7.0000e-06 6.2809e-06 1.1904e-06 7.0000e-06 6.3731e-06 7.3043e-07
7.0000e-06 6.3177e-06 3.2948e-07 7.0000e-06 5.9403e-06 6.7237e-06 7.0000e-06 5.9268e-06 6.2363e-06
7.0000e-06 5.8813e-06 5.8154e-06 7.0000e-06 5.9947e-06 5.3630e-06 7.0000e-06 5.7290e-06 5.0593e-06
7.0000e-06 5.9640e-06 4.6100e-06 7.0000e-06 5.9337e-06 4.0670e-06 7.0000e-06 5.9690e-06 3.5388e-06
7.0000e-06 5.9565e-06 2.9976e-06 7.0000e-06 5.9823e-06 2.3868e-06 7.0000e-06 5.9104e-06 1.8501e-06
7.0000e-06 5.8797e-06 1.1742e-06 7.0000e-06 5.9125e-06 6.8952e-07 7.0000e-06 5.8766e-06 2.8033e-07
6.9835e-06 5.5350e-06 7.0000e-06 7.0000e-06 5.5592e-06 6.3980e-06 7.0000e-06 5.4523e-06 5.9945e-06
7.0000e-06 5.5637e-06 5.5144e-06 7.0000e-06 5.3787e-06 4.6821e-06 7.0000e-06 5.5451e-06 4.2712e-06
7.0000e-06 5.5999e-06 3.8405e-06 7.0000e-06 5.5587e-06 3.0972e-06 7.0000e-06 5.5361e-06 2.6951e-06
7.0000e-06 5.5848e-06 2.2930e-06 7.0000e-06 5.5217e-06 1.5364e-06 7.0000e-06 5.5649e-06 8.8763e-07
7.0000e-06 5.4399e-06 2.9985e-07 7.0000e-06 5.0172e-06 6.6421e-06 7.0000e-06 5.0240e-06 6.1258e-06
7.0000e-06 5.1353e-06 5.5472e-06 7.0000e-06 5.1817e-06 5.0464e-06 7.0000e-06 5.1127e-06 4.3231e-06
7.0000e-06 5.1997e-06 3.7307e-06 7.0000e-06 4.8468e-06 3.4914e-06 7.0000e-06 5.1017e-06 3.1650e-06
7.0000e-06 5.0848e-06 2.7649e-06 7.0000e-06 5.1789e-06 2.2428e-06 7.0000e-06 5.1988e-06 1.8369e-06
7.0000e-06 5.1963e-06 1.1763e-06 7.0000e-06 5.1856e-06 7.4485e-07 7.0000e-06 4.7079e-06 6.3827e-06
7.0000e-06 4.7465e-06 5.7393e-06 7.0000e-06 4.7143e-06 5.0944e-06 7.0000e-06 4.7516e-06 4.5673e-06
7.0000e-06 4.7880e-06 3.9889e-06 7.0000e-06 4.6986e-06 2.9373e-06 7.0000e-06 4.7886e-06 2.3653e-06
7.0000e-06 4.7912e-06 1.8768e-06 7.0000e-06 4.7440e-06 1.4451e-06 7.0000e-06 4.7232e-06 7.7876e-07
7.0000e-06 4.7818e-06 3.1005e-07 7.0000e-06 4.3365e-06 6.6226e-06 7.0000e-06 4.3708e-06 6.0719e-06
7.0000e-06 4.3746e-06 5.5301e-06 7.0000e-06 4.2226e-06 4.9158e-06 7.0000e-06 4.2802e-06 4.3812e-06
7.0000e-06 4.3956e-06 3.8484e-06 7.0000e-06 4.3745e-06 3.4065e-06 7.0000e-06 4.3263e-06 2.7804e-06
7.0000e-06 4.3637e-06 2.3805e-06 7.0000e-06 4.3619e-06 1.9285e-06 7.0000e-06 4.2756e-06 1.5314e-06
7.0000e-06 4.2678e-06 1.1226e-06 7.0000e-06 4.3761e-06 3.3994e-07 7.0000e-06 3.9718e-06 6.4419e-06
7.0000e-06 3.9173e-06 5.9942e-06 7.0000e-06 3.9730e-06 5.3555e-06 7.0000e-06 3.8089e-06 4.7651e-06
7.0000e-06 3.9593e-06 4.0374e-06 7.0000e-06 3.9014e-06 3.5952e-06 7.0000e-06 3.9910e-06 3.0673e-06
7.0000e-06 3.9347e-06 2.3428e-06 7.0000e-06 3.9672e-06 1.8139e-06 7.0000e-06 3.8978e-06 1.3067e-06
7.0000e-06 3.9281e-06 7.8495e-07 7.0000e-06 3.9618e-06 2.8244e-07 7.0000e-06 3.5310e-06 6.6235e-06
7.0000e-06 3.4904e-06 6.0800e-06 7.0000e-06 3.5650e-06 5.6120e-06 7.0000e-06 3.5960e-06 5.1633e-06
7.0000e-06 3.5362e-06 4.3997e-06 7.0000e-06 3.5571e-06 3.9959e-06 7.0000e-06 3.4923e-06 3.5879e-06
7.0000e-06 3.5958e-06 3.1660e-06 7.0000e-06 3.5824e-06 2.6802e-06 7.0000e-06 3.5354e-06 2.2001e-06
7.0000e-06 3.5803e-06 1.5866e-06 7.0000e-06 3.5795e-06 9.9095e-07 7.0000e-06 3.4969e-06 5.0302e-07
7.0000e-06 3.1658e-06 6.3324e-06 7.0000e-06 3.1528e-06 5.8398e-06 7.0000e-06 3.1122e-06 5.0265e-06
7.0000e-06 3.1471e-06 4.6163e-06 7.0000e-06 3.0869e-06 3.9803e-06 7.0000e-06 3.1525e-06 3.0440e-06
7.0000e-06 3.1172e-06 2.3889e-06 7.0000e-06 3.1724e-06 1.9651e-06 7.0000e-06 3.1714e-06 1.5418e-06
7.0000e-06 3.0955e-06 1.1280e-06 7.0000e-06 3.1398e-06 6.9371e-07 7.0000e-06 3.1759e-06 2.6110e-07
7.0000e-06 2.7433e-06 6.6819e-06 7.0000e-06 2.7460e-06 6.1089e-06 7.0000e-06 2.7783e-06 5.6736e-06
7.0000e-06 2.7382e-06 5.1939e-06 7.0000e-06 2.7504e-06 4.7861e-06 7.0000e-06 2.7953e-06 4.3461e-06
7.0000e-06 2.7656e-06 3.4994e-06 7.0000e-06 2.7008e-06 3.0866e-06 7.0000e-06 2.7524e-06 2.6862e-06
7.0000e-06 2.7704e-06 2.1469e-06 7.0000e-06 2.7261e-06 1.5671e-06 7.0000e-06 2.7334e-06 8.9040e-07
7.0000e-06 2.7542e-06 4.0654e-07 7.0000e-06 2.3781e-06 6.3071e-06 7.0000e-06 2.3882e-06 5.8959e-06
7.0000e-06 2.3072e-06 5.4221e-06 7.0000e-06 2.3496e-06 4.7728e-06 7.0000e-06 2.3900e-06 4.3611e-06
7.0000e-06 2.3957e-06 3.8838e-06 7.0000e-06 2.2751e-06 3.4618e-06 7.0000e-06 2.3726e-06 2.8565e-06
7.0000e-06 2.2899e-06 2.4645e-06 7.0000e-06 2.3448e-06 2.0640e-06 7.0000e-06 2.3240e-06 1.6430e-06
7.0000e-06 2.3125e-06 1.0983e-06 7.0000e-06 2.3580e-06 6.9328e-07 7.0000e-06 2.3726e-06 1.7574e-07
7.0000e-06 1.9959e-06 6.7112e-06 7.0000e-06 1.9781e-06 6.1258e-06 7.0000e-06 1.9652e-06 5.7113e-06
7.0000e-06 1.9848e-06 5.1508e-06 7.0000e-06 1.9801e-06 4.5291e-06 7.0000e-06 1.9398e-06 3.9704e-06
7.0000e-06 1.8299e-06 3.5666e-06 7.0000e-06 1.9736e-06 2.9633e-06 7.0000e-06 1.8758e-06 2.3872e-06
7.0000e-06 1.9684e-06 1.9131e-06 7.0000e-06 1.9786e-06 1.3685e-06 7.0000e-06 1.9262e-06 7.9740e-07
7.0000e-06 1.8794e-06 2.9842e-07 7.0000e-06 1.5865e-06 6.6486e-06 7.0000e-06 1.5571e-06 6.0986e-06
7.0000e-06 1.5981e-06 5.5336e-06 7.0000e-06 1.5265e-06 5.1120e-06 7.0000e-06 1.5419e-06 4.5556e-06
7.0000e-06 1.4530e-06 3.9027e-06 7.0000e-06 1.5563e-06 3.1653e-06 7.0000e-06 1.5815e-06 2.7373e-06
7.0000e-06 1.5661e-06 2.0820e-06 7.0000e-06 1.5581e-06 1.5603e-06 7.0000e-06 1.5868e-06 1.1237e-06
7.0000e-06 1.5535e-06 5.9815e-07 7.0000e-06 1.2227e-06 3.6862e-07 7.0000e-06 1.1696e-06 6.7847e-06
7.0000e-06 1.1902e-06 6.3659e-06 7.0000e-06 1.1941e-06 5.9168e-06 7.0000e-06 1.0971e-06 5.1979e-06
7.0000e-06 1.1698e-06 4.7959e-06 7.0000e-06 1.1977e-06 4.3453e-06 7.0000e-06 1.1536e-06 3.4978e-06
7.0000e-06 1.1132e-06 3.0015e-06 7.0000e-06 1.1403e-06 2.4241e-06 7.0000e-06 1.1566e-06 1.9678e-06
7.0000e-06 1.1681e-06 1.1980e-06 7.0000e-06 1.1655e-06 7.7716e-07 6.9934e-06 7.2412e-07 7.0000e-06
7.0000e-06 7.1558e-07 6.3265e-06 7.0000e-06 7.9198e-07 5.5306e-06 7.0000e-06 7.7511e-07 4.9502e-06
7.0000e-06 7.7757e-07 4.3802e-06 7.0000e-06 7.9726e-07 3.9611e-06 7.0000e-06 6.5959e-07 3.5691e-06
7.0000e-06 7.1978e-07 3.1561e-06 7.0000e-06 7.8509e-07 2.6920e-06 7.0000e-06 7.2100e-07 2.2520e-06
7.0000e-06 7.6994e-07 1.7419e-06 7.0000e-06 7.0711e-07 1.2032e-06 7.0000e-06 7.5710e-07 7.9479e-07
7.0000e-06 7.1410e-07 3.9085e-07 7.0000e-06 3.6352e-07 6.6794e-06 7.0000e-06 8.2805e-08 6.2997e-06
7.0000e-06 3.1432e-07 5.9654e-06 7.0000e-06 3.8323e-07 5.5461e-06 7.0000e-06 2.6557e-07 5.1425e-06
7.0000e-06 3.9097e-07 4.6633e-06 7.0000e-06 3.3901e-07 3.9927e-06 7.0000e-06 2.1403e-07 3.5828e-06
7.0000e-06 1.1251e-07 3.1278e-06 7.0000e-06 3.5116e-07 2.7660e-06 7.0000e-06 2.3783e-07 1.9945e-06
7.0000e-06 3.1146e-07 1.5875e-06 7.0000e-06 2.1430e-07 1.1959e-06 7.0000e-06 2.5104e-07 4.9965e-07
7.0000e-06 2.9549e-09 1.7884e-07 6.6789e-06 7.0000e-06 6.7516e-06 6.7918e-06 7.0000e-06 5.9920e-06
6.6270e-06 7.0000e-06 5.5910e-06 6.7542e-06 7.0000e-06 4.9497e-06 6.5250e-06 7.0000e-06 4.3756e-06
6.7884e-06 7.0000e-06 3.9626e-06 6.7336e-06 7.0000e-06 3.3899e-06 6.7595e-06 7.0000e-06 2.8206e-06
6.7589e-06 7.0000e-06 2.3971e-06 6.7818e-06 7.0000e-06 1.9810e-06 6.7202e-06 7.0000e-06 1.5737e-06
6.7610e-06 7.0000e-06 1.1453e-06 6.6859e-06 7.0000e-06 3.7623e-07 6.7712e-06 6.5223e-06 7.0000e-06
6.6744e-06 6.6265e-06 0.0000e+00 6.7866e-06 6.1333e-06 0.0000e+00 6.7011e-06 5.8907e-06 7.0000e-06
6.7627e-06 5.5976e-06 0.0000e+00 6.7944e-06 5.1729e-06 7.0000e-06 6.7248e-06 5.1760e-06 0.0000e+00
6.7941e-06 4.7029e-06 7.0000e-06 6.7468e-06 4.7617e-06 0.0000e+00 6.7524e-06 4.0328e-06 7.0000e-06
6.7953e-06 4.3124e-06 0.0000e+00 6.7765e-06 3.7494e-06 0.0000e+00 6.6725e-06 3.5859e-06 7.0000e-06
6.7620e-06 3.1720e-06 7.0000e-06 6.6699e-06 3.1983e-06 0.0000e+00 6.7499e-06 2.7665e-06 7.0000e-06
6.7655e-06 2.6940e-06 0.0000e+00 6.7190e-06 2.3534e-06 7.0000e-06 6.7340e-06 2.1136e-06 0.0000e+00
6.4030e-06 1.9181e-06 7.0000e-06 6.7223e-06 1.5066e-06 7.0000e-06 6.7723e-06 1.5968e-06 0.0000e+00
6.4630e-06 1.1279e-06 7.0000e-06 6.7924e-06 1.1148e-06 0.0000e+00 6.7952e-06 7.1173e-07 0.0000e+00
6.7594e-06 3.9878e-07 7.0000e-06 6.7970e-06 0.0000e+00 6.7792e-06 6.5979e-06 0.0000e+00 6.3705e-06
6.7402e-06 0.0000e+00 5.9634e-06 6.7147e-06 0.0000e+00 5.4212e-06 6.7314e-06 0.0000e+00 4.9501e-06
6.7642e-06 0.0000e+00 4.3133e-06 6.7976e-06 0.0000e+00 3.9004e-06 6.7060e-06 0.0000e+00 3.4113e-06
6.7527e-06 0.0000e+00 2.7842e-06 6.7754e-06 0.0000e+00 2.2388e-06 6.5593e-06 0.0000e+00 1.5807e-06
6.7333e-06 0.0000e+00 9.1454e-07 6.6372e-06 0.0000e+00 4.5060e-07 6.7725e-06 2.8471e-07 0.0000e+00
6.3128e-06 7.0000e-06 6.5807e-06 6.3871e-06 7.0000e-06 5.9810e-06 6.1049e-06 7.0000e-06 5.5560e-06
6.3669e-06 7.0000e-06 5.1718e-06 6.3069e-06 7.0000e-06 4.7450e-06 6.3396e-06 7.0000e-06 4.0200e-06
6.2921e-06 7.0000e-06 3.5974e-06 6.3532e-06 7.0000e-06 2.9233e-06 6.3562e-06 7.0000e-06 2.4679e-06
6.3756e-06 7.0000e-06 1.9731e-06 6.3844e-06 7.0000e-06 1.3000e-06 6.3906e-06 7.0000e-06 7.8772e-07
6.3742e-06 7.0000e-06 7.8617e-08 6.3978e-06 6.7739e-06 7.0000e-06 6.3953e-06 6.3616e-06 7.0000e-06
6.3109e-06 6.3832e-06 0.0000e+00 6.3020e-06 5.6693e-06 7.0000e-06 6.3561e-06 5.9656e-06 0.0000e+00
6.3835e-06 5.2679e-06 7.0000e-06 6.2307e-06 5.5749e-06 0.0000e+00 6.3206e-06 4.9562e-06 0.0000e+00
6.3620e-06 4.7654e-06 7.0000e-06 6.3851e-06 4.4382e-06 0.0000e+00 6.3845e-06 4.3625e-06 7.0000e-06
6.3015e-06 3.9632e-06 7.0000e-06 6.2618e-06 3.8941e-06 0.0000e+00 6.3536e-06 3.2593e-06 7.0000e-06
[...]
CELL_DATA 1
FIELD FieldData 5
cell_id 1 1 int
0 
cell_type_id 1 1 int
0 
cell_area 1 1 float
2.825e-10 
cell_volume 1 1 float
3.402e-16 
cell_pressure 1 1 float
-0.000e+00 