# vtk DataFile Version 4.2
vtk output
ASCII
DATASET POLYDATA
POINTS 8 double
0 0 0 1 0 0 1 0 1 
0 0 1 0 1 0 1 1 0 
0 1 1 1 1 1 
METADATA
INFORMATION 2
NAME L2_NORM_RANGE LOCATION vtkDataArray
DATA 2 0 1.21244e-05 
NAME L2_NORM_FINITE_RANGE LOCATION vtkDataArray
DATA 2 0 1.21244e-05 

POLYGONS 12 48
3 0 1 3 
3 2 3 1 
3 0 4 1 
3 5 1 4 
3 0 3 4 
3 6 4 3 
3 1 5 2 
3 7 2 5 
3 5 4 7 
3 6 7 4 
3 3 2 6 
3 7 6 2 

CELL_DATA 12
FIELD FieldData 1
Cell_type_id 1 12 int
1 1 1 1 1 1 1 1 1 
1 1 1 
METADATA
INFORMATION 0

