# vtk DataFile Version 4.2
vtk output
ASCII
DATASET UNSTRUCTURED_GRID
POINTS 16 float
0.000e+00 0.000e+00 0.000e+00 1.000e+00 0.000e+00 0.000e+00 1.000e+00 0.000e+00 1.000e+00
0.000e+00 0.000e+00 1.000e+00 0.000e+00 1.000e+00 0.000e+00 1.000e+00 1.000e+00 0.000e+00
0.000e+00 1.000e+00 1.000e+00 1.000e+00 1.000e+00 1.000e+00 2.000e+00 0.000e+00 0.000e+00
3.000e+00 0.000e+00 0.000e+00 3.000e+00 0.000e+00 1.000e+00 2.000e+00 0.000e+00 1.000e+00
2.000e+00 1.000e+00 0.000e+00 3.000e+00 1.000e+00 0.000e+00 2.000e+00 1.000e+00 1.000e+00
3.000e+00 1.000e+00 1.000e+00 
CELLS 24 96
3 0 1 3
3 2 3 1
3 0 4 1
3 5 1 4
3 0 3 4
3 6 4 3
3 1 5 2
3 7 2 5
3 5 4 7
3 6 7 4
3 3 2 6
3 7 6 2
3 8 9 11
3 10 11 9
3 8 12 9
3 13 9 12
3 8 11 12
3 14 12 11
3 9 13 10
3 15 10 13
3 13 12 15
3 14 15 12
3 11 10 14
3 15 14 10

CELL_TYPES 24
7
7
7
7
7
7
7
7
7
7
7
7
7
7
7
7
7
7
7
7
7
7
7
7

CELL_DATA 24
FIELD FieldData 1
face_area 1 24 double
-1.000e+00 -1.000e+00 -1.000e+00 -1.000e+00 -1.000e+00 -1.000e+00 -1.000e+00 -1.000e+00 -1.000e+00 -1.000e+00
-1.000e+00 -1.000e+00 -1.000e+00 -1.000e+00 -1.000e+00 -1.000e+00 -1.000e+00 -1.000e+00 -1.000e+00
-1.000e+00 -1.000e+00 -1.000e+00 -1.000e+00 -1.000e+00 