# vtk DataFile Version 4.2
vtk output
ASCII
DATASET UNSTRUCTURED_GRID
POINTS 16 float
5e-07 0 0 7.5e-06 0 0 7.5e-06 0 7e-06 
5e-07 0 7e-06 5e-07 7e-06 0 7.5e-06 7e-06 0 
5e-07 7e-06 7e-06 7.5e-06 7e-06 7e-06 8e-06 0 0 
1.5e-05 0 0 1.5e-05 0 7e-06 8e-06 0 7e-06 
8e-06 7e-06 0 1.5e-05 7e-06 0 8e-06 7e-06 7e-06 
1.5e-05 7e-06 7e-06 
METADATA
INFORMATION 2
NAME L2_NORM_RANGE LOCATION vtkDataArray
DATA 2 5e-07 1.79722e-05 
NAME L2_NORM_FINITE_RANGE LOCATION vtkDataArray
DATA 2 5e-07 1.79722e-05 

CELLS 2 100
49 12 3 0 1 3 3 2 3 1 3 0 4 1 3 5 1 4 3 0 3 4 3 6 4 3 3 1 5 2 3 7 2 5 3 5 4 7 3 6 7 4 3 3 2 6 3 7 6 2 
49 12 3 8 9 11 3 10 11 9 3 8 12 9 3 13 9 12 3 8 11 12 3 14 12 11 3 9 13 10 3 15 10 13 3 13 12 15 3 14 15 12 3 11 10 14 3 15 14 10 
CELL_TYPES 2
42
42

CELL_DATA 2
FIELD FieldData 2
cell_type_id 1 2 int
0 0 
METADATA
INFORMATION 0

vtkOriginalCellIds 1 2 vtkIdType
1 0 
POINT_DATA 16
FIELD FieldData 1
vtkOriginalPointIds 1 16 vtkIdType
8 9 10 11 12 13 14 15 0 
1 2 3 4 5 6 7 
