# vtk DataFile Version 4.2
vtk output
ASCII
DATASET UNSTRUCTURED_GRID
POINTS 32 float
8e-06 8e-06 0 1.5e-05 8e-06 0 1.5e-05 8e-06 7e-06 
8e-06 8e-06 7e-06 8e-06 1.5e-05 0 1.5e-05 1.5e-05 0 
8e-06 1.5e-05 7e-06 1.5e-05 1.5e-05 7e-06 0 8e-06 0 
7e-06 8e-06 0 7e-06 8e-06 7e-06 0 8e-06 7e-06 
0 1.5e-05 0 7e-06 1.5e-05 0 0 1.5e-05 7e-06 
7e-06 1.5e-05 7e-06 8e-06 0 0 1.5e-05 0 0 
1.5e-05 0 7e-06 8e-06 0 7e-06 8e-06 7e-06 0 
1.5e-05 7e-06 0 8e-06 7e-06 7e-06 1.5e-05 7e-06 7e-06 
0 0 0 7e-06 0 0 7e-06 0 7e-06 
0 0 7e-06 0 7e-06 0 7e-06 7e-06 0 
0 7e-06 7e-06 7e-06 7e-06 7e-06 
METADATA
INFORMATION 2
NAME L2_NORM_RANGE LOCATION vtkDataArray
DATA 2 0 2.23383e-05 
NAME L2_NORM_FINITE_RANGE LOCATION vtkDataArray
DATA 2 0 2.23383e-05 

CELLS 4 200
49 12 3 0 1 3 3 2 3 1 3 0 4 1 3 5 1 4 3 0 3 4 3 6 4 3 3 1 5 2 3 7 2 5 3 5 4 7 3 6 7 4 3 3 2 6 3 7 6 2 
49 12 3 8 9 11 3 10 11 9 3 8 12 9 3 13 9 12 3 8 11 12 3 14 12 11 3 9 13 10 3 15 10 13 3 13 12 15 3 14 15 12 3 11 10 14 3 15 14 10 
49 12 3 16 17 19 3 18 19 17 3 16 20 17 3 21 17 20 3 16 19 20 3 22 20 19 3 17 21 18 3 23 18 21 3 21 20 23 3 22 23 20 3 19 18 22 3 23 22 18 
49 12 3 24 25 27 3 26 27 25 3 24 28 25 3 29 25 28 3 24 27 28 3 30 28 27 3 25 29 26 3 31 26 29 3 29 28 31 3 30 31 28 3 27 26 30 3 31 30 26 
CELL_TYPES 4
42
42
42
42

CELL_DATA 4
FIELD FieldData 2
cell_type_id 1 4 int
0 0 0 0 
METADATA
INFORMATION 0

vtkOriginalCellIds 1 4 vtkIdType
0 1 0 1 
POINT_DATA 32
FIELD FieldData 1
vtkOriginalPointIds 1 32 vtkIdType
0 1 2 3 4 5 6 7 8 
9 10 11 12 13 14 15 0 1 
2 3 4 5 6 7 8 9 10 
11 12 13 14 15 
