# vtk DataFile Version 4.2
vtk output
ASCII
DATASET UNSTRUCTURED_GRID
POINTS 1416 float
1.46556e-05 1.426e-05 2.68397e-05 1.45773e-05 1.33499e-05 2.69513e-05 1.56311e-05 1.36685e-05 2.67248e-05 
1.40981e-05 1.52282e-05 2.67606e-05 1.35131e-05 1.25936e-05 2.71279e-05 1.48326e-05 1.64593e-05 2.63301e-05 
1.28583e-05 1.51398e-05 2.68832e-05 1.79352e-05 1.25262e-05 2.60434e-05 1.84658e-05 1.39834e-05 2.56994e-05 
1.87104e-05 1.55615e-05 2.52763e-05 1.3214e-05 1.64104e-05 2.6561e-05 1.15879e-05 1.33757e-05 2.71359e-05 
1.37587e-05 1.12367e-05 2.70854e-05 1.71384e-05 1.76973e-05 2.5237e-05 1.57502e-05 1.75944e-05 2.57244e-05 
1.43009e-05 1.76953e-05 2.59886e-05 1.8512e-05 1.12808e-05 2.57697e-05 1.94818e-05 1.26262e-05 2.53005e-05 
2.00842e-05 1.44044e-05 2.47648e-05 1.99934e-05 1.64283e-05 2.42835e-05 1.28732e-05 1.79854e-05 2.60149e-05 
1.13557e-05 1.13782e-05 2.71543e-05 1.63264e-05 9.8149e-06 2.64167e-05 1.90076e-05 1.85038e-05 2.39472e-05 
1.66598e-05 1.86353e-05 2.49791e-05 1.54883e-05 1.87346e-05 2.52825e-05 1.05836e-05 1.53021e-05 2.67831e-05 
9.83045e-06 1.28872e-05 2.69924e-05 1.26063e-05 9.92035e-06 2.7007e-05 1.75703e-05 8.8829e-06 2.57965e-05 
2.00954e-05 1.10338e-05 2.4887e-05 2.08975e-05 1.21023e-05 2.43958e-05 2.16803e-05 1.41497e-05 2.36409e-05 
1.27468e-05 1.95496e-05 2.52525e-05 1.16946e-05 1.88972e-05 2.56058e-05 1.30427e-05 1.37639e-05 2.70982e-05 
1.00505e-05 1.18992e-05 2.70435e-05 1.40876e-05 1.89102e-05 2.54684e-05 1.02346e-05 1.06311e-05 2.69861e-05 
1.131e-05 9.852e-06 2.69941e-05 1.26093e-05 8.87065e-06 2.68199e-05 1.65283e-05 8.14195e-06 2.59734e-05 
1.92246e-05 9.4173e-06 2.5161e-05 2.07277e-05 9.89885e-06 2.42968e-05 2.21677e-05 1.54646e-05 2.28903e-05 
1.99978e-05 1.83488e-05 2.34318e-05 1.74926e-05 1.97535e-05 2.40097e-05 1.78073e-05 7.34855e-06 2.52261e-05 
2.05962e-05 8.7672e-06 2.41192e-05 2.16525e-05 1.09295e-05 2.37653e-05 2.21949e-05 1.24899e-05 2.33689e-05 
2.18587e-05 1.68497e-05 2.26675e-05 1.89724e-05 1.94386e-05 2.34318e-05 1.04465e-05 1.96212e-05 2.51071e-05 
9.36425e-06 1.88539e-05 2.53255e-05 8.94725e-06 1.77485e-05 2.57553e-05 8.1613e-06 1.69585e-05 2.58358e-05 
8.5396e-06 1.25933e-05 2.67532e-05 1.12277e-05 8.24185e-06 2.66455e-05 1.26635e-05 7.4099e-06 2.64127e-05 
1.42444e-05 7.1237e-06 2.61625e-05 1.56755e-05 6.7606e-06 2.57332e-05 1.68868e-05 6.6264e-06 2.52982e-05 
1.89903e-05 6.63935e-06 2.43492e-05 2.16259e-05 9.31555e-06 2.34845e-05 1.85141e-05 2.0432e-05 2.30051e-05 
1.70719e-05 2.10214e-05 2.32981e-05 1.19955e-05 2.18695e-05 2.36528e-05 8.26175e-06 1.54215e-05 2.63196e-05 
7.6129e-06 1.14503e-05 2.64715e-05 9.90425e-06 7.9163e-06 2.63885e-05 1.7923e-05 5.89645e-06 2.45364e-05 
1.89199e-05 5.55555e-06 2.3828e-05 2.13829e-05 7.97675e-06 2.32623e-05 2.00192e-05 2.0133e-05 2.22496e-05 
9.7317e-06 2.08731e-05 2.41834e-05 7.34535e-06 1.83014e-05 2.50156e-05 6.95115e-06 1.53105e-05 2.59008e-05 
6.79355e-06 1.30508e-05 2.61752e-05 8.28305e-06 9.77665e-06 2.64886e-05 1.14454e-05 6.5025e-06 2.60585e-05 
1.25758e-05 5.78095e-06 2.57445e-05 1.48192e-05 5.4383e-06 2.53377e-05 2.00674e-05 5.8631e-06 2.32764e-05 
2.10256e-05 6.6867e-06 2.29787e-05 6.9564e-06 1.68207e-05 2.54844e-05 5.82155e-06 1.46205e-05 2.55764e-05 
5.33075e-06 1.33991e-05 2.54832e-05 7.51505e-06 8.51135e-06 2.59647e-05 1.5697e-05 4.25913e-06 2.44264e-05 
2.30833e-05 1.22151e-05 2.24929e-05 9.6707e-07 9.5216e-06 2.54858e-06 8.83115e-06 2.18136e-05 2.32023e-05 
6.77985e-06 1.9632e-05 2.40539e-05 6.066e-06 1.84619e-05 2.43876e-05 5.70625e-06 1.75393e-05 2.46206e-05 
5.81055e-06 1.62242e-05 2.5167e-05 6.03775e-06 1.20264e-05 2.58821e-05 6.7243e-06 1.0534e-05 2.60744e-05 
7.5361e-06 7.5232e-06 2.56749e-05 8.9471e-06 6.9889e-06 2.58944e-05 1.01129e-05 5.61775e-06 2.55281e-05 
1.1606e-05 4.92247e-06 2.53072e-05 1.32453e-05 4.6413e-06 2.51195e-05 1.44317e-05 3.7484e-06 2.4392e-05 
1.69179e-05 4.09113e-06 2.39012e-05 2.24767e-05 9.85655e-06 2.2846e-05 1.70882e-05 1.34614e-05 2.63058e-05 
2.28015e-05 1.11048e-05 2.27344e-05 2.24496e-05 1.79849e-05 2.14909e-05 5.2053e-06 1.9198e-05 2.34627e-05 
4.5885e-06 1.56684e-05 2.46651e-05 4.12479e-06 1.40275e-05 2.47341e-05 5.3201e-06 1.09131e-05 2.54702e-05 
8.58545e-06 5.96355e-06 2.53547e-05 1.333e-05 3.36819e-06 2.42669e-05 1.82486e-05 3.62206e-06 2.29148e-05 
2.37734e-05 1.12708e-05 2.16733e-05 2.37145e-05 1.65213e-05 2.07681e-05 1.85131e-05 2.16645e-05 2.19721e-05 
1.42418e-05 2.26149e-05 2.27922e-05 2.1038e-05 1.71195e-05 2.32441e-05 6.49125e-06 2.10213e-05 2.29172e-05 
5.5194e-06 2.00075e-05 2.31411e-05 4.05348e-06 1.08056e-05 2.47343e-05 6.23245e-06 7.87485e-06 2.52789e-05 
8.91465e-06 4.73951e-06 2.48025e-05 1.7363e-05 2.87494e-06 2.27635e-05 9.3572e-06 1.62122e-05 2.6369e-05 
1.95331e-05 3.55706e-06 2.20118e-05 2.43182e-05 1.5018e-05 2.05406e-05 2.33758e-05 1.80814e-05 2.02502e-05 
1.69548e-05 2.22165e-05 2.22908e-05 1.33795e-05 2.34546e-05 2.20256e-05 8.69915e-06 2.27486e-05 2.22826e-05 
4.01917e-06 1.8076e-05 2.33195e-05 3.68729e-06 1.67198e-05 2.37051e-05 5.28745e-06 9.4203e-06 2.52466e-05 
4.96072e-06 7.7964e-06 2.45871e-05 6.3652e-06 6.55635e-06 2.4832e-05 2.05242e-05 3.97834e-06 2.15721e-05 
2.48484e-05 1.34737e-05 2.01385e-05 2.51223e-05 1.4932e-05 1.92577e-05 2.47813e-05 1.60898e-05 1.93448e-05 
1.70094e-05 1.49138e-05 2.61421e-05 2.42824e-05 1.74439e-05 1.93374e-05 2.26458e-05 1.93804e-05 2.01921e-05 
1.47523e-05 2.34508e-05 2.1773e-05 1.61016e-05 1.99998e-05 2.43914e-05 4.2915e-06 1.97555e-05 2.25064e-05 
2.74007e-06 1.65894e-05 2.29931e-05 2.14033e-06 1.28457e-05 2.33222e-05 7.945e-06 3.92144e-06 2.39798e-05 
2.45205e-05 1.0336e-05 2.05354e-05 2.52548e-05 1.14343e-05 1.94985e-05 2.18878e-05 2.0481e-05 2.00825e-05 
2.06902e-05 2.1038e-05 2.0839e-05 1.80559e-05 2.28509e-05 2.09771e-05 1.35763e-05 2.4355e-05 2.08701e-05 
1.21294e-05 2.39834e-05 2.14778e-05 2.13154e-05 5.1907e-06 2.18443e-05 8.99705e-06 2.36202e-05 2.13881e-05 
3.20284e-06 1.80461e-05 2.27031e-05 2.19974e-06 1.17889e-05 2.33871e-05 2.93432e-06 1.07772e-05 2.39304e-05 
4.30583e-06 6.48885e-06 2.36321e-05 5.3569e-06 4.49533e-06 2.31203e-05 2.53527e-05 1.05236e-05 1.91647e-05 
2.59225e-05 1.1536e-05 1.81773e-05 2.55292e-05 1.26445e-05 1.90275e-05 2.62269e-05 1.27537e-05 1.74498e-05 
2.56852e-05 1.39393e-05 1.84989e-05 2.56061e-05 1.56186e-05 1.79619e-05 2.50679e-05 1.70829e-05 1.81204e-05 
2.45385e-05 1.81807e-05 1.82225e-05 2.29309e-05 2.01246e-05 1.90112e-05 1.75362e-05 2.38182e-05 2.00113e-05 
1.50863e-05 2.43253e-05 2.05324e-05 8.32635e-06 2.4187e-05 2.03408e-05 5.14965e-06 2.11472e-05 2.19813e-05 
8.35105e-06 2.57828e-06 2.30657e-05 1.56867e-05 3.10235e-06 2.36078e-05 2.45195e-05 7.21795e-06 1.91224e-05 
2.43385e-05 1.90727e-05 1.76543e-05 1.95064e-05 2.23482e-05 2.04667e-05 1.65636e-05 2.44187e-05 1.97079e-05 
1.40367e-05 2.51418e-05 1.95479e-05 1.41581e-05 2.32237e-06 2.33252e-05 7.0479e-06 2.31609e-05 2.10941e-05 
6.0247e-06 2.19275e-05 2.18217e-05 2.98918e-06 7.3892e-06 2.30466e-05 4.26616e-06 5.1152e-06 2.28024e-05 
5.7451e-06 3.51017e-06 2.26017e-05 6.9161e-06 2.96005e-06 2.27973e-05 1.90516e-05 2.55444e-06 2.14429e-05 
2.50824e-05 8.9434e-06 1.91609e-05 2.59173e-05 1.02836e-05 1.79245e-05 2.63184e-05 1.41974e-05 1.68315e-05 
2.5766e-05 1.6571e-05 1.68189e-05 2.51952e-05 1.80273e-05 1.68738e-05 2.35664e-05 2.02775e-05 1.7702e-05 
1.54653e-05 2.51418e-05 1.90315e-05 1.03881e-05 2.52423e-05 1.93739e-05 8.9881e-06 2.50645e-05 1.92196e-05 
4.8403e-06 2.18168e-05 2.10667e-05 9.9389e-06 2.04983e-06 2.30248e-05 1.551e-05 1.84532e-06 2.2556e-05 
2.52406e-05 7.5775e-06 1.79629e-05 2.63635e-05 1.00006e-05 1.65735e-05 2.6403e-05 1.53606e-05 1.57811e-05 
2.59832e-05 1.68929e-05 1.57474e-05 2.28031e-05 2.15556e-05 1.71688e-05 5.0123e-06 1.83788e-05 2.38308e-05 
1.88849e-05 2.35674e-05 1.93464e-05 1.70264e-05 2.50793e-05 1.81713e-05 1.26008e-05 2.35347e-06 2.35178e-05 
1.42882e-05 2.58037e-05 1.81534e-05 8.3288e-06 2.53488e-05 1.83007e-05 6.4347e-06 2.41884e-05 1.9112e-05 
5.56825e-06 2.26115e-05 2.0735e-05 2.09586e-06 1.71498e-05 2.21587e-05 1.41162e-06 1.22228e-05 2.26493e-05 
1.00525e-05 1.22248e-06 2.22012e-05 1.14601e-05 1.61283e-06 2.28157e-05 1.34134e-05 1.25237e-06 2.24172e-05 
1.37467e-05 3.24183e-07 2.12213e-05 1.63876e-05 1.03579e-06 2.13048e-05 2.57828e-05 8.9857e-06 1.76493e-05 
1.35558e-05 6.02055e-06 2.57915e-05 2.6459e-05 1.14576e-05 1.67699e-05 1.38378e-05 8.54335e-06 2.66525e-05 
3.8353e-06 2.62013e-06 2.01633e-05 2.6698e-05 1.27999e-05 1.59618e-05 2.15409e-05 2.72038e-06 1.91249e-05 
2.54912e-05 1.83157e-05 1.54553e-05 2.46263e-05 1.94517e-05 1.64092e-05 2.37432e-05 2.07035e-05 1.65356e-05 
2.04438e-05 2.24241e-05 1.94414e-05 1.57349e-05 2.5756e-05 1.75467e-05 1.34359e-05 2.63104e-05 1.71233e-05 
1.74951e-06 1.80197e-05 2.12694e-05 7.1416e-07 1.28406e-05 2.18518e-05 4.24392e-06 3.93526e-06 2.19105e-05 
8.6825e-06 1.54726e-06 2.21788e-05 1.49899e-05 7.1086e-07 2.14396e-05 1.92812e-05 1.52347e-06 2.00018e-05 
2.57022e-05 7.88695e-06 1.70487e-05 2.68069e-05 1.3996e-05 1.50724e-05 2.42906e-05 2.04681e-05 1.53267e-05 
1.9651e-05 2.36854e-05 1.82945e-05 1.70308e-05 2.55572e-05 1.70048e-05 1.4439e-05 2.63197e-05 1.67371e-05 
1.2358e-05 2.63961e-05 1.7054e-05 2.57618e-06 9.11275e-06 2.33183e-05 1.14014e-05 2.63785e-05 1.70417e-05 
6.84855e-06 2.5034e-05 1.78947e-05 1.25562e-05 2.49644e-05 2.00671e-05 5.10615e-06 2.40197e-05 1.81608e-05 
5.66985e-06 2.36462e-05 1.94274e-05 4.38776e-06 2.22952e-05 2.01156e-05 1.74142e-07 1.57103e-05 2.04845e-05 
1.77342e-05 1.02654e-05 2.59906e-05 9.5485e-08 1.4298e-05 2.08685e-05 2.11304e-05 1.85206e-05 2.24431e-05 
5.67565e-07 1.12742e-05 2.16727e-05 1.13431e-05 8.01715e-07 2.1936e-05 1.57072e-05 6.31885e-08 2.02865e-05 
2.0323e-05 2.28385e-06 2.00058e-05 2.46289e-05 5.5939e-06 1.73449e-05 2.53386e-05 6.8254e-06 1.70128e-05 
2.65552e-05 9.24705e-06 1.53392e-05 2.67314e-05 1.06153e-05 1.55012e-05 2.70532e-05 1.25627e-05 1.42252e-05 
1.13292e-05 2.48266e-05 2.02514e-05 2.70398e-05 1.35199e-05 1.38138e-05 2.62262e-05 1.70663e-05 1.42714e-05 
[...]
CELL_DATA 1
FIELD FieldData 5
Cell_id 1 1 int
1 
METADATA
INFORMATION 0

Cell_pressure 1 1 double
46.428649867 
METADATA
INFORMATION 0

Cell_type_id 1 1 int
0 
METADATA
INFORMATION 0

Cell_volume 1 1 double
3.3524248669e-16 
METADATA
INFORMATION 0

vtkOriginalCellIds 1 1 vtkIdType
1 
POINT_DATA 1416
NORMALS normals float
0.16066 0.139822 0.977056 0.150322 0.0743407 0.985838 0.235659 0.098567 0.966824 
0.126559 0.201165 0.971347 0.0997911 0.0254194 0.994684 0.179228 0.285643 0.941427 
0.0444702 0.197195 0.979355 0.377388 0.0234193 0.925759 0.416653 0.117965 0.901379 
0.434917 0.227026 0.871382 0.0690502 0.286615 0.955554 -0.0318683 0.0819006 0.996131 
0.102 -0.0573602 0.993129 0.336378 0.359189 0.870536 0.240574 0.360451 0.901221 
0.144343 0.368318 0.918426 0.422993 -0.0643611 0.903844 0.491971 0.0291248 0.870124 
0.528649 0.151579 0.835197 0.521868 0.283107 0.804676 0.0497115 0.393878 0.917817 
-0.0584319 -0.0572813 0.996647 0.284254 -0.160969 0.945139 0.450667 0.41961 0.787926 
0.301215 0.434594 0.848762 0.213186 0.440644 0.872 -0.108641 0.211262 0.971373 
-0.155031 0.0494456 0.986671 0.0260482 -0.153192 0.987853 0.366212 -0.222834 0.903457 
0.529966 -0.0777074 0.844451 0.580981 -0.00899702 0.813867 0.629816 0.132252 0.765403 
0.0369032 0.49318 0.869144 -0.0349733 0.448257 0.89322 0.0650935 0.109678 0.991834 
-0.141803 -0.0223851 0.989642 0.1232 0.455186 0.881832 -0.123966 -0.101492 0.987082 
-0.0498693 -0.154327 0.98676 0.0275836 -0.216638 0.975862 0.287234 -0.274344 0.917732 
0.472232 -0.185345 0.861768 0.567912 -0.154306 0.808496 0.661943 0.213358 0.718547 
0.51606 0.404513 0.755017 0.358639 0.502825 0.786477 0.375262 -0.324166 0.868386 
0.561026 -0.2267 0.796151 0.627852 -0.0890706 0.77322 0.660446 0.0200457 0.750606 
0.641933 0.308516 0.701954 0.446394 0.479129 0.755756 -0.122828 0.493306 0.86114 
-0.184652 0.450019 0.87372 -0.212123 0.374441 0.902661 -0.267993 0.317611 0.909562 
-0.242993 0.0265609 0.969664 -0.0660113 -0.270683 0.960403 0.0382564 -0.326736 0.944341 
0.140522 -0.343085 0.928734 0.234401 -0.361797 0.902308 0.315875 -0.367098 0.874907 
0.450948 -0.368666 0.812854 0.626811 -0.192631 0.754984 0.417639 0.549528 0.7236 
0.333675 0.585003 0.73921 -0.00997945 0.632627 0.774392 -0.26522 0.218251 0.939162 
-0.306997 -0.0478713 0.950506 -0.153793 -0.286425 0.945679 0.38226 -0.411308 0.827468 
0.451089 -0.441334 0.775721 0.61031 -0.284685 0.73924 0.515391 0.529325 0.673934 
-0.166134 0.575131 0.801014 -0.315104 0.403167 0.859166 -0.351838 0.213829 0.911311 
-0.36026 0.0567166 0.931126 -0.271565 -0.162806 0.94855 -0.0483104 -0.382518 0.922684 
0.0251466 -0.423295 0.905643 0.174033 -0.451529 0.875119 0.524424 -0.414299 0.743866 
0.588239 -0.366435 0.720902 -0.349949 0.312464 0.88312 -0.42207 0.159459 0.892429 
-0.452026 0.0717126 0.889117 -0.314236 -0.242688 0.917801 0.232719 -0.526003 0.818024 
0.731112 0.00606823 0.682231 -0.7506 -0.181528 -0.635332 -0.223236 0.635604 0.739035 
-0.353964 0.496865 0.79236 -0.407218 0.423665 0.809124 -0.430076 0.351619 0.831504 
-0.42566 0.269062 0.863956 -0.411308 -0.014096 0.911387 -0.371869 -0.11341 0.921332 
-0.309002 -0.314809 0.897448 -0.214898 -0.349769 0.911856 -0.140074 -0.435632 0.889159 
-0.0366066 -0.481958 0.875429 0.0689211 -0.50259 0.861773 0.152867 -0.560417 0.813981 
0.315795 -0.542782 0.778242 0.681851 -0.154485 0.714992 0.328272 0.0852314 0.94073 
0.707516 -0.0739721 0.702815 0.686742 0.382297 0.618251 -0.462467 0.463437 0.755877 
-0.507069 0.234617 0.829359 -0.53412 0.119903 0.836863 -0.457174 -0.0803956 0.885736 
-0.241005 -0.421122 0.874399 0.0750346 -0.590899 0.803248 0.410995 -0.566879 0.713954 
0.773614 -0.0592711 0.630879 0.768562 0.288338 0.571115 0.423738 0.626805 0.653882 
0.137857 0.693893 0.706759 0.584135 0.328821 0.742066 -0.378114 0.58341 0.718792 
-0.43602 0.514483 0.738372 -0.536749 -0.089281 0.839005 -0.396431 -0.28331 0.873257 
-0.215904 -0.498453 0.839601 0.336998 -0.622317 0.706509 -0.187962 0.269776 0.9444 
0.491851 -0.574133 0.654563 0.810246 0.187503 0.555287 0.748547 0.392157 0.534687 
0.317068 0.66758 0.67365 0.0808963 0.752018 0.65416 -0.229177 0.699875 0.6765 
-0.537284 0.389801 0.747918 -0.563674 0.30667 0.766959 -0.463067 -0.185933 0.866601 
-0.478957 -0.294694 0.826895 -0.384583 -0.380739 0.840912 0.554236 -0.541799 0.631883 
0.843456 0.0907424 0.529479 0.861557 0.177987 0.475437 0.838421 0.260017 0.479001 
0.325894 0.183995 0.927329 0.805228 0.352412 0.476879 0.699854 0.473445 0.534841 
0.171797 0.752675 0.635583 0.266757 0.519545 0.811735 -0.526197 0.49132 0.694062 
-0.624054 0.289878 0.725622 -0.667192 0.0455377 0.743492 -0.28355 -0.554384 0.782469 
0.825406 -0.121019 0.551415 0.872465 -0.0526896 0.485827 0.650777 0.55358 0.519652 
0.56405 0.596968 0.570506 0.389571 0.712545 0.583535 0.0969642 0.807023 0.582505 
0.00573628 0.789132 0.614197 0.609037 -0.454959 0.649682 -0.208073 0.763571 0.611281 
-0.594543 0.383283 0.706833 -0.661914 -0.0275905 0.749072 -0.617583 -0.0976677 0.780418 
-0.525393 -0.370963 0.765734 -0.453803 -0.510066 0.730682 0.879401 -0.110441 0.463094 
0.911972 -0.0447225 0.407808 0.888632 0.0251907 0.457928 0.933126 0.038397 0.357494 
0.899156 0.118265 0.421345 0.89457 0.223715 0.386905 0.859256 0.323285 0.396442 
0.824566 0.397689 0.40241 0.715308 0.52634 0.459675 0.357232 0.771825 0.525996 
0.197059 0.809988 0.552347 -0.250858 0.800791 0.543879 -0.466587 0.590033 0.658906 
-0.253763 -0.640491 0.724828 0.234113 -0.603496 0.762222 0.82253 -0.328438 0.464298 
0.811517 0.455967 0.365423 0.482464 0.672423 0.561316 0.293205 0.813938 0.501533 
0.122714 0.861973 0.491877 0.13264 -0.646244 0.751515 -0.333467 0.732889 0.593021 
-0.408221 0.651165 0.639796 -0.612541 -0.319467 0.723004 -0.528854 -0.465069 0.709946 
-0.430375 -0.575837 0.695118 -0.353004 -0.610719 0.708809 0.449346 -0.644072 0.61908 
0.857378 -0.215821 0.467252 0.914143 -0.129053 0.384302 0.939572 0.139864 0.312478 
0.905594 0.286138 0.31309 0.866399 0.386271 0.31646 0.759421 0.534741 0.370583 
0.219991 0.862869 0.45504 -0.120289 0.870491 0.477259 -0.211031 0.855222 0.473352 
-0.481223 0.643534 0.595221 -0.153142 -0.673837 0.722836 0.228344 -0.689123 0.687727 
0.869324 -0.304026 0.389673 0.943501 -0.150759 0.295089 0.942812 0.216982 0.25303 
0.920646 0.31163 0.235156 0.712544 0.619362 0.329655 -0.481394 0.412619 0.773308 
0.443736 0.755823 0.481487 0.31504 0.856351 0.409162 0.0268168 -0.651326 0.758324 
0.143394 0.906479 0.397157 -0.254208 0.875652 0.410624 -0.377705 0.809959 0.44867 
-0.439965 0.694047 0.569851 -0.673105 0.326718 0.663464 -0.716705 0.00310876 0.697369 
-0.138478 -0.731901 0.667192 -0.0515054 -0.702864 0.709457 0.0784813 -0.732996 0.67569 
0.106855 -0.788723 0.60539 0.283665 -0.745245 0.603443 0.90774 -0.215962 0.359679 
0.089937 -0.409226 0.90799 0.95129 -0.052431 0.303806 0.118303 -0.249873 0.961024 
-0.566042 -0.635112 0.525574 0.967035 0.0397647 0.251518 0.631372 -0.626488 0.457037 
0.888762 0.406976 0.210883 0.827232 0.488221 0.278077 0.772196 0.569089 0.28258 
0.549293 0.687487 0.475014 0.234269 0.903555 0.358756 0.0844473 0.938815 0.333908 
-0.696472 0.387594 0.603902 -0.76642 0.0461716 0.640678 -0.525109 -0.546309 0.652539 
-0.22791 -0.714879 0.661063 0.181738 -0.768829 0.613085 0.460289 -0.713686 0.528003 
0.90436 -0.280728 0.321442 0.973538 0.124227 0.19181 0.805042 0.553549 0.213287 
0.501479 0.763094 0.407684 0.317349 0.894469 0.314983 0.15275 0.940779 0.30266 
0.0170473 0.945124 0.326267 -0.637905 -0.203758 0.742671 -0.0544078 0.944415 0.324222 
-0.354394 0.849628 0.39056 0.0286575 0.852815 0.521426 -0.46682 0.794001 0.389412 
-0.425817 0.764866 0.483383 -0.512652 0.672194 0.534175 -0.79697 0.23662 0.555742 
0.36897 -0.132712 0.919918 -0.801228 0.134886 0.582958 0.598567 0.41439 0.685564 
-0.775322 -0.0549896 0.629168 -0.055866 -0.76439 0.642329 0.231572 -0.804888 0.546378 
0.542152 -0.661992 0.51753 0.832874 -0.437635 0.338816 0.875083 -0.358958 0.324621 
0.957163 -0.194407 0.214581 0.970283 -0.104476 0.218254 0.989367 0.01954 0.144122 
-0.060011 0.840376 0.538671 0.990232 0.0925879 0.104249 0.933511 0.330378 0.139312 
0.897545 0.428749 0.102896 0.853136 0.494783 0.165376 0.631781 0.670179 0.389502 
0.419649 0.832081 0.362678 0.30472 0.919776 0.247302 0.159348 0.962569 0.219248 
-0.0133384 0.973396 0.228742 0.0300622 0.575699 0.817109 -0.23488 0.917413 0.321224 
-0.690797 0.451344 0.564878 -0.745467 0.388286 0.541769 -0.811831 0.0318641 0.583022 
-0.113982 0.404124 0.907575 -0.703409 -0.269814 0.657583 -0.662493 -0.37597 0.64788 
-0.280366 -0.758269 0.588577 -0.174825 -0.795038 0.580819 0.00559611 -0.852436 0.522802 
0.310139 -0.797104 0.518111 0.39445 -0.778774 0.48777 0.484463 -0.746183 0.456626 
0.704983 -0.584238 0.402076 0.874764 -0.407982 0.261416 0.923724 -0.297811 0.240919 
0.981093 -0.136305 0.137393 0.986163 -0.0658076 0.152154 0.98085 0.168139 0.0982996 
0.962669 0.262507 0.0660176 0.929324 0.367929 0.0313822 0.846277 0.529079 0.0623762 
0.747353 0.628367 0.215913 0.673628 0.686387 0.274041 0.519579 0.790837 0.323441 
-0.178568 0.18314 0.966733 0.237852 0.936834 0.256453 -0.118004 0.958966 0.257797 
-0.315263 0.907349 0.278077 -0.403982 0.856186 0.322093 -0.818956 -0.135548 0.557618 
-0.784744 -0.24207 0.570596 -0.606928 -0.462977 0.64598 0.402377 -0.816538 0.413954 
0.749812 -0.582445 0.31391 0.99472 -0.0611902 0.0823846 0.99173 0.12037 0.0445159 
0.980119 0.198184 0.00946757 0.880678 0.473694 -0.00450529 0.797354 -0.558631 0.228382 
0.750364 0.651 0.114688 0.69987 0.696176 0.159752 0.470243 0.842697 0.262171 
0.206484 0.963511 0.170323 0.132494 0.980559 0.144737 -0.0350161 0.901683 0.430977 
0.0328403 0.993746 0.106726 -0.0517674 0.984831 0.165612 -0.217611 0.950998 0.219656 
-0.40136 0.884224 0.238867 -0.732868 0.444929 0.514726 -0.914885 0.0806575 0.395575 
-0.802427 -0.310418 0.509658 -0.37125 -0.756033 0.539061 -0.0192178 -0.897965 0.439648 
0.139653 -0.88665 0.440851 0.229798 -0.857085 0.461083 0.323273 -0.841237 0.433376 
0.457614 -0.799019 0.390075 0.528748 -0.761045 0.375814 0.920346 -0.355699 0.162606 
0.964758 -0.234748 0.118891 0.988874 -0.13785 0.0559024 0.998541 0.0379644 0.0384126 
0.668697 0.735289 0.110425 0.555745 0.802594 0.216771 0.28947 0.942201 0.168715 
-0.128448 0.980071 0.151529 -0.306877 0.94577 0.10652 -0.375914 -0.529556 0.760434 
-0.308183 0.932603 0.187818 0.226763 0.620074 0.751057 -0.481101 0.824186 0.298764 
-0.551421 0.757929 0.348536 -0.858275 0.310116 0.408891 -0.900211 -0.012063 0.435287 
-0.876885 -0.108716 0.468245 -0.851255 -0.222635 0.475183 -0.44462 -0.724406 0.52683 
-0.201112 -0.861204 0.466777 0.546191 -0.780471 0.304204 0.667486 -0.657756 0.349027 
0.861532 -0.473839 0.182316 0.99661 0.0504341 -0.0649982 0.992353 0.12032 -0.0275461 
-0.869649 0.192878 0.454433 0.951459 0.304405 -0.0454188 0.90646 0.415556 -0.0751221 
0.853622 0.509175 -0.109865 0.782942 0.620992 0.037018 0.472297 0.864008 0.174427 
0.2057 0.975021 0.0837981 -0.557461 0.783984 0.273142 -0.609604 0.700448 0.371155 
-0.703861 0.500689 0.503876 -0.784996 0.428147 0.44774 -0.853567 0.370238 0.366535 
-0.904867 0.237151 0.353519 -0.950206 0.0824393 0.300521 -0.899705 -0.168446 0.402686 
-0.2759 -0.867255 0.414425 -0.223707 0.966496 0.125856 0.0709598 -0.930272 0.359943 
0.279479 0.282305 0.917712 0.187302 -0.910035 0.369802 0.332164 -0.878446 0.343511 
0.433658 -0.282554 0.855631 0.734267 -0.638427 0.230788 -0.274508 0.564868 0.778183 
0.859474 -0.502463 0.0939921 0.906794 -0.412691 0.086081 0.94952 -0.309605 0.0505649 
0.983954 0.131457 -0.120636 0.949826 0.286307 -0.125935 0.791686 0.596169 -0.133476 
0.715124 0.697686 0.0427921 0.651109 0.758312 0.0319327 0.545441 0.829014 0.123414 
0.30191 0.950666 0.071302 0.0675182 -0.884428 0.461767 0.11553 0.9913 0.0630725 
-0.0538186 0.55948 0.827095 -0.347054 -0.21699 -0.912397 -0.394938 0.90734 0.144079 
-0.503324 0.841251 0.197386 -0.726501 0.52938 0.438124 -0.827705 0.439073 0.349456 
-0.899315 0.301254 0.316985 -0.930475 0.156039 0.331464 -0.923801 -0.0865944 0.372952 
-0.836715 -0.330372 0.436764 -0.206722 -0.904093 0.374008 0.249643 -0.922894 0.293165 
0.410747 -0.856118 0.313606 -0.308861 -0.894361 0.323611 0.798753 -0.586685 0.133396 
-0.361931 -0.830615 0.423184 0.923128 -0.384475 0.00375331 0.990818 -0.0988651 -0.0922274 
-0.458804 -0.431712 0.77661 0.993434 -0.0183542 -0.112926 0.923485 0.360145 -0.132176 
0.716785 0.681476 -0.147678 0.383876 0.91367 0.133591 0.752216 0.656401 -0.057525 
0.574819 0.817232 0.0414191 -0.823365 0.536074 0.186265 0.47653 0.876108 0.0731691 
0.98521 0.0603979 -0.160356 -0.0124993 0.999865 0.0107036 -0.152922 0.986733 0.0545247 
-0.359312 0.932218 0.0431852 -0.604852 0.769121 0.206413 -0.631933 0.720528 0.285482 
-0.700747 0.596528 0.39129 -0.879767 0.384075 0.280173 -0.936487 0.222344 0.271211 
-0.121473 0.661013 0.740477 -0.895543 -0.260601 0.360679 -0.566963 -0.60351 0.56065 
-0.597154 -0.626225 0.501248 -0.528086 -0.684976 0.501929 -0.495651 -0.753472 0.431984 
-0.00510625 -0.964331 0.26465 0.072586 -0.963399 0.258056 0.153697 -0.948575 0.276736 
0.324049 -0.917955 0.228803 0.501232 -0.830821 0.241873 0.880919 -0.472917 0.0181825 
0.947243 -0.312146 -0.0727712 0.816697 -0.499191 0.289508 0.981478 -0.189344 -0.0291381 
0.984276 -0.0758662 -0.159513 0.970566 0.131914 -0.201496 0.220418 0.203004 0.954047 
0.959305 0.217434 -0.180156 0.820506 0.529517 -0.215363 0.7559 0.612204 -0.231994 
0.425664 0.904869 0.00467125 -0.112659 -0.540961 0.833468 0.1598 0.987121 -0.00745254 
-0.181026 0.982929 -0.0328666 -0.473248 0.877767 0.0745785 0.977081 -0.031028 0.210592 
-0.572314 0.811223 0.119892 -0.596627 0.0101584 0.802454 -0.671405 0.657955 0.341044 
-0.546635 -0.261073 0.795633 -0.770436 0.527402 0.358156 0.521713 -0.307877 0.79563 
-0.925828 0.300782 0.228852 -0.974817 0.0255576 0.221539 0.102474 -0.153601 0.982805 
-0.959694 -0.0738329 0.271177 -0.857948 -0.366578 0.359926 -0.500001 -0.786451 0.362621 
-0.416877 -0.845737 0.33308 -0.208753 -0.934531 0.288226 -0.110748 -0.959695 0.258303 
0.0342822 -0.979754 0.19725 0.413843 -0.885727 0.210288 0.567018 -0.807573 0.162222 
-0.289432 -0.926853 0.239109 0.767555 -0.639581 0.042373 0.82574 -0.563176 0.0314049 
-0.31972 0.814653 0.483859 0.976459 -0.155388 -0.14961 0.978214 -0.017234 -0.206884 
0.948514 0.160035 -0.273332 0.54286 0.831128 -0.120535 0.333024 0.94282 -0.0136457 
0.14075 0.986154 -0.0876905 0.0623579 0.997577 -0.0308424 -0.0910249 0.99544 -0.0285222 
-0.561243 0.826585 0.0419835 0.199145 -0.283917 0.937941 -0.650459 0.748295 0.130218 
-0.727849 0.607579 0.317936 -0.874007 0.445491 0.194036 -0.909271 0.370914 0.188807 
-0.940263 0.313086 0.133723 -0.957149 0.227569 0.179106 -0.963862 -0.151926 0.218833 
-0.120692 -0.348484 0.929512 -0.937063 -0.238865 0.254668 -0.901565 -0.329004 0.280956 
-0.810566 -0.452198 0.372155 -0.75008 -0.488556 0.44575 -0.660557 -0.561957 0.497865 
-0.208478 -0.955559 0.208432 0.380142 0.893382 0.239499 -0.1362 -0.975421 0.173216 
-0.046071 -0.984806 0.167436 -0.0290616 0.344323 0.938401 0.208507 -0.959176 0.191066 
0.290404 -0.945962 0.144297 -0.548273 0.707737 0.44554 0.375381 -0.917253 0.13318 
0.939035 -0.296656 -0.173808 0.95007 -0.223359 -0.217895 0.965916 0.0660124 -0.250295 
0.918789 0.264633 -0.292909 -0.665278 0.576862 0.473958 0.875624 0.376712 -0.302274 
0.0234773 -0.0934663 0.995346 0.826921 0.475207 -0.300632 0.0126182 0.990855 -0.134336 
-0.0997996 -0.858847 0.502416 -0.0662743 0.989326 -0.129778 -0.244778 0.966552 -0.0765629 
-0.328299 0.942891 -0.0563615 -0.429145 0.902672 -0.0319141 -0.863038 0.0674883 0.50061 
-0.524934 0.850812 -0.0237299 -0.714171 0.651314 0.256419 -0.776515 0.573226 0.261605 
-0.992697 0.000188888 0.120632 -0.983015 -0.069547 0.169838 0.0180871 0.00513245 0.999823 
-0.960455 -0.217151 0.174275 -0.895671 -0.388199 0.216966 0.187011 -0.00365153 0.982351 
-0.491687 0.331194 0.805329 -0.831324 0.481204 0.278106 -0.772569 -0.513493 0.373448 
-0.194287 -0.973397 0.121451 -0.107474 -0.990009 0.0912742 0.0412857 -0.991516 0.12325 
0.481373 -0.867678 0.124155 0.584401 -0.808414 0.0703001 0.786691 -0.615756 -0.0442901 
0.869566 -0.470626 -0.14955 0.913134 -0.375002 -0.159872 0.962419 -0.117949 -0.244618 
0.882584 0.269346 -0.385355 0.874179 0.324296 -0.361446 0.290705 -0.451488 0.843593 
0.7614 0.52352 -0.382356 0.230982 0.695484 0.680404 0.579354 0.788184 -0.207643 
0.503442 0.841837 -0.194567 -0.0779016 -0.629977 0.772697 0.439967 0.887829 -0.134862 
0.338455 0.935163 -0.104491 0.0906058 0.985458 -0.143746 -0.166532 0.978436 -0.122185 
-0.398357 0.908245 -0.128072 0.283155 0.0233338 0.95879 -0.570059 0.81604 -0.0954528 
-0.687486 0.701645 0.187236 0.412791 0.908958 -0.0582984 -0.762125 0.624838 0.169536 
0.852158 -0.520283 -0.0559636 -0.861208 0.494075 0.119212 -0.44398 -0.800491 0.402611 
-0.96895 0.23251 0.0841119 -0.994835 0.069057 0.0743956 -0.993796 -0.0757445 0.0814449 
-0.93454 -0.299576 0.192065 -0.880538 -0.449947 0.148995 -0.856213 -0.463673 0.22783 
-0.626655 -0.646379 0.435314 -0.422441 -0.890867 0.167031 -0.303873 -0.939261 0.159532 
0.128141 -0.985104 0.114676 0.218342 -0.970669 0.100643 0.415484 -0.908178 0.0508557 
-0.327845 -0.691402 0.643802 0.829763 -0.512668 -0.2206 0.904594 -0.421132 -0.066013 
0.932463 -0.121201 -0.340328 0.904623 -0.0776636 -0.419077 0.947732 -0.0282867 -0.317812 
0.935525 0.0766646 -0.344841 0.907586 0.181491 -0.378614 0.799277 0.411368 -0.438102 
0.813395 0.441737 -0.378493 0.751136 0.475829 -0.457583 0.71752 0.609214 -0.337672 
0.670867 0.700431 -0.243586 0.351543 0.916434 -0.191225 0.267657 0.948229 -0.170943 
-0.493243 0.862273 -0.114879 -0.988663 0.146032 0.0349267 0.836029 -0.0159685 0.548453 
-0.999184 -0.0188365 0.0357164 -0.982333 -0.153081 0.107647 -0.802523 -0.515837 0.299781 
-0.720767 -0.579824 0.379868 -0.659537 -0.677967 0.32461 -0.584498 -0.781119 0.21958 
-0.361882 -0.929003 0.0774242 0.0692745 -0.997047 0.0331336 0.157387 -0.986196 0.0514446 
0.222221 -0.974876 0.0153262 0.313138 -0.947973 0.0573647 -0.717148 0.113838 0.687561 
0.511423 -0.859304 -0.00659492 0.874379 -0.41007 -0.259432 0.925928 -0.214049 -0.311192 
0.492006 -0.505197 0.709018 0.519332 0.807866 -0.278653 0.0422375 0.97721 -0.208028 
-0.0295114 0.975535 -0.217855 -0.114602 0.970009 -0.214358 -0.164261 0.94161 -0.293921 
-0.197843 0.956957 -0.212348 -0.37917 0.904643 -0.194552 -0.728639 0.680843 0.0744162 
-0.869388 0.493097 0.0319305 -0.910925 0.412508 -0.00722673 -0.973872 0.227032 0.00551449 
-0.978494 -0.205033 0.0226105 -0.961493 -0.254147 0.104592 -0.822379 -0.535076 0.193355 
-0.998871 -0.0259189 -0.0398211 -0.638836 -0.727445 0.250426 -0.594683 -0.79137 0.141724 
-0.519572 -0.839328 0.159919 -0.461055 -0.884132 0.0757501 -0.412984 -0.910727 0.00460011 
-0.25487 -0.965067 0.0607193 -0.166546 -0.98518 0.0410109 -0.00469603 -0.999307 -0.0369137 
0.646923 -0.349921 0.677529 0.29146 -0.956281 -0.024039 0.474998 -0.874508 -0.0980414 
0.343333 0.28701 -0.894286 0.771099 -0.599915 -0.213325 0.826357 -0.475198 -0.302195 
0.888325 -0.313169 -0.335862 0.888179 -0.239637 -0.392061 0.897247 -0.167764 -0.408415 
0.904225 0.00401982 -0.427037 0.888956 0.0951161 -0.448006 0.863708 0.171134 -0.474048 
0.854252 0.241424 -0.4604 0.832486 0.333738 -0.442251 0.597422 0.696705 -0.397102 
0.599405 0.739389 -0.306622 -0.118153 -0.901555 0.416219 0.435693 0.868111 -0.237812 
0.225148 0.941119 -0.252198 -0.0250194 -0.997866 0.0603049 0.124184 0.962091 -0.242814 
0.917176 -0.312903 -0.24674 -0.459163 0.862686 -0.211995 -0.564982 0.805538 -0.178614 
0.367876 0.88491 -0.285658 -0.94654 0.321961 0.0200658 -0.984207 0.16841 -0.0545479 
-0.750018 -0.607579 0.261384 -0.702297 -0.679757 0.211445 0.0647496 -0.996626 -0.050432 
0.139426 -0.990051 -0.0189398 0.388818 -0.920573 -0.0369684 0.638206 -0.752814 -0.161136 
0.650283 -0.712475 -0.263652 0.714972 -0.655003 -0.244514 0.785367 -0.544956 -0.293636 
0.194881 -0.105471 0.97514 0.836996 -0.404297 -0.368757 0.848353 0.0327785 -0.528415 
-0.52921 -0.094776 -0.843181 0.810136 0.214779 -0.545481 0.80244 0.294588 -0.518949 