# vtk DataFile Version 4.2
vtk output
ASCII
DATASET UNSTRUCTURED_GRID
POINTS 4248 float
2.96556e-05 1.426e-05 5.28397e-05 2.95773e-05 1.33499e-05 5.29513e-05 3.06311e-05 1.36685e-05 5.27248e-05 
2.90981e-05 1.52282e-05 5.27606e-05 2.85131e-05 1.25936e-05 5.31279e-05 2.98327e-05 1.64593e-05 5.23301e-05 
2.78583e-05 1.51398e-05 5.28832e-05 3.29351e-05 1.25262e-05 5.20434e-05 3.34659e-05 1.39834e-05 5.16994e-05 
3.37104e-05 1.55615e-05 5.12763e-05 2.8214e-05 1.64104e-05 5.2561e-05 2.65878e-05 1.33757e-05 5.3136e-05 
2.87586e-05 1.12367e-05 5.30854e-05 3.21384e-05 1.76973e-05 5.1237e-05 3.07502e-05 1.75944e-05 5.17243e-05 
2.93009e-05 1.76953e-05 5.19886e-05 3.3512e-05 1.12808e-05 5.17697e-05 3.44819e-05 1.26262e-05 5.13005e-05 
3.50842e-05 1.44044e-05 5.07648e-05 3.49934e-05 1.64283e-05 5.02835e-05 2.78732e-05 1.79854e-05 5.2015e-05 
2.63558e-05 1.13782e-05 5.31543e-05 3.13264e-05 9.8149e-06 5.24167e-05 3.40077e-05 1.85038e-05 4.99471e-05 
3.16598e-05 1.86353e-05 5.09791e-05 3.04883e-05 1.87346e-05 5.12825e-05 2.55836e-05 1.53021e-05 5.27831e-05 
2.48304e-05 1.28872e-05 5.29924e-05 2.76063e-05 9.92035e-06 5.30071e-05 3.25703e-05 8.8829e-06 5.17965e-05 
3.50955e-05 1.10338e-05 5.0887e-05 3.58975e-05 1.21023e-05 5.03959e-05 3.66803e-05 1.41497e-05 4.96409e-05 
2.77467e-05 1.95496e-05 5.12525e-05 2.66945e-05 1.88972e-05 5.16058e-05 2.80428e-05 1.37639e-05 5.30983e-05 
2.50505e-05 1.18992e-05 5.30435e-05 2.90876e-05 1.89102e-05 5.14684e-05 2.52346e-05 1.06311e-05 5.29861e-05 
2.63101e-05 9.852e-06 5.29941e-05 2.76093e-05 8.87065e-06 5.28199e-05 3.15283e-05 8.14195e-06 5.19734e-05 
3.42246e-05 9.4173e-06 5.1161e-05 3.57277e-05 9.89885e-06 5.02968e-05 3.71677e-05 1.54646e-05 4.88903e-05 
3.49979e-05 1.83488e-05 4.94318e-05 3.24926e-05 1.97535e-05 5.00097e-05 3.28074e-05 7.34855e-06 5.12261e-05 
3.55962e-05 8.7672e-06 5.01192e-05 3.66525e-05 1.09295e-05 4.97653e-05 3.71949e-05 1.24899e-05 4.93689e-05 
3.68587e-05 1.68497e-05 4.86675e-05 3.39724e-05 1.94386e-05 4.94318e-05 2.54465e-05 1.96212e-05 5.11071e-05 
2.43642e-05 1.88539e-05 5.13255e-05 2.39473e-05 1.77485e-05 5.17553e-05 2.31613e-05 1.69585e-05 5.18358e-05 
2.35396e-05 1.25933e-05 5.27532e-05 2.62277e-05 8.24185e-06 5.26456e-05 2.76635e-05 7.4099e-06 5.24127e-05 
2.92444e-05 7.1237e-06 5.21624e-05 3.06755e-05 6.7606e-06 5.17332e-05 3.18867e-05 6.6264e-06 5.12983e-05 
3.39903e-05 6.63935e-06 5.03492e-05 3.66259e-05 9.31555e-06 4.94845e-05 3.35141e-05 2.0432e-05 4.90051e-05 
3.20719e-05 2.10214e-05 4.92981e-05 2.69955e-05 2.18695e-05 4.96528e-05 2.32617e-05 1.54215e-05 5.23197e-05 
2.26129e-05 1.14503e-05 5.24715e-05 2.49042e-05 7.9163e-06 5.23885e-05 3.2923e-05 5.89645e-06 5.05365e-05 
3.392e-05 5.55555e-06 4.9828e-05 3.63829e-05 7.97675e-06 4.92623e-05 3.50192e-05 2.0133e-05 4.82496e-05 
2.47317e-05 2.08731e-05 5.01834e-05 2.23453e-05 1.83014e-05 5.10156e-05 2.19511e-05 1.53105e-05 5.19008e-05 
2.17936e-05 1.30508e-05 5.21751e-05 2.3283e-05 9.77665e-06 5.24886e-05 2.64455e-05 6.5025e-06 5.20585e-05 
2.75758e-05 5.78095e-06 5.17446e-05 2.98192e-05 5.4383e-06 5.13377e-05 3.50674e-05 5.8631e-06 4.92764e-05 
3.60256e-05 6.6867e-06 4.89787e-05 2.19564e-05 1.68207e-05 5.14844e-05 2.08215e-05 1.46205e-05 5.15765e-05 
2.03307e-05 1.33991e-05 5.14832e-05 2.25151e-05 8.51135e-06 5.19647e-05 3.06971e-05 4.25913e-06 5.04264e-05 
3.80832e-05 1.22151e-05 4.8493e-05 1.59671e-05 9.5216e-06 2.85486e-05 2.38311e-05 2.18136e-05 4.92023e-05 
2.17798e-05 1.9632e-05 5.00539e-05 2.1066e-05 1.84619e-05 5.03876e-05 2.07062e-05 1.75393e-05 5.06206e-05 
2.08106e-05 1.62242e-05 5.1167e-05 2.10377e-05 1.20264e-05 5.18822e-05 2.17243e-05 1.0534e-05 5.20744e-05 
2.25361e-05 7.5232e-06 5.16749e-05 2.39471e-05 6.9889e-06 5.18944e-05 2.51129e-05 5.61775e-06 5.15281e-05 
2.6606e-05 4.92247e-06 5.13072e-05 2.82453e-05 4.6413e-06 5.11195e-05 2.94317e-05 3.7484e-06 5.0392e-05 
3.19179e-05 4.09113e-06 4.99012e-05 3.74767e-05 9.85655e-06 4.8846e-05 3.20882e-05 1.34614e-05 5.23058e-05 
3.78015e-05 1.11048e-05 4.87344e-05 3.74496e-05 1.79849e-05 4.74909e-05 2.02053e-05 1.9198e-05 4.94627e-05 
1.95885e-05 1.56684e-05 5.06651e-05 1.91248e-05 1.40275e-05 5.07342e-05 2.03201e-05 1.09131e-05 5.14703e-05 
2.35854e-05 5.96355e-06 5.13547e-05 2.833e-05 3.36819e-06 5.02669e-05 3.32486e-05 3.62206e-06 4.89148e-05 
3.87734e-05 1.12708e-05 4.76734e-05 3.87145e-05 1.65213e-05 4.67681e-05 3.3513e-05 2.16645e-05 4.79721e-05 
2.92418e-05 2.26149e-05 4.87922e-05 3.6038e-05 1.71195e-05 4.92442e-05 2.14913e-05 2.10213e-05 4.89172e-05 
2.05194e-05 2.00075e-05 4.91411e-05 1.90535e-05 1.08056e-05 5.07343e-05 2.12325e-05 7.87485e-06 5.12789e-05 
2.39147e-05 4.73951e-06 5.08026e-05 3.2363e-05 2.87494e-06 4.87635e-05 2.43572e-05 1.62122e-05 5.2369e-05 
3.45331e-05 3.55706e-06 4.80119e-05 3.93182e-05 1.5018e-05 4.65406e-05 3.83758e-05 1.80814e-05 4.62502e-05 
3.19548e-05 2.22165e-05 4.82908e-05 2.83795e-05 2.34546e-05 4.80256e-05 2.36992e-05 2.27486e-05 4.82826e-05 
1.90192e-05 1.8076e-05 4.93195e-05 1.86873e-05 1.67198e-05 4.97052e-05 2.02874e-05 9.4203e-06 5.12467e-05 
1.99607e-05 7.7964e-06 5.05871e-05 2.13652e-05 6.55635e-06 5.0832e-05 3.55242e-05 3.97834e-06 4.75721e-05 
3.98484e-05 1.34737e-05 4.61385e-05 4.01223e-05 1.4932e-05 4.52578e-05 3.97813e-05 1.60898e-05 4.53448e-05 
3.20095e-05 1.49138e-05 5.21421e-05 3.92825e-05 1.74439e-05 4.53374e-05 3.76458e-05 1.93804e-05 4.61921e-05 
2.97523e-05 2.34508e-05 4.7773e-05 3.11016e-05 1.99998e-05 5.03914e-05 1.92915e-05 1.97555e-05 4.85064e-05 
1.77401e-05 1.65894e-05 4.89931e-05 1.71403e-05 1.28457e-05 4.93222e-05 2.2945e-05 3.92144e-06 4.99798e-05 
3.95205e-05 1.0336e-05 4.65354e-05 4.02548e-05 1.14343e-05 4.54985e-05 3.68878e-05 2.0481e-05 4.60825e-05 
3.56902e-05 2.1038e-05 4.6839e-05 3.30559e-05 2.28509e-05 4.69772e-05 2.85763e-05 2.4355e-05 4.68702e-05 
2.71295e-05 2.39834e-05 4.74778e-05 3.63155e-05 5.1907e-06 4.78443e-05 2.39971e-05 2.36202e-05 4.73881e-05 
1.82028e-05 1.80461e-05 4.87031e-05 1.71997e-05 1.17889e-05 4.93871e-05 1.79343e-05 1.07772e-05 4.99304e-05 
1.93058e-05 6.48885e-06 4.96321e-05 2.03569e-05 4.49533e-06 4.91204e-05 4.03527e-05 1.05236e-05 4.51647e-05 
4.09225e-05 1.1536e-05 4.41773e-05 4.05292e-05 1.26445e-05 4.50275e-05 4.12269e-05 1.27537e-05 4.34498e-05 
4.06852e-05 1.39393e-05 4.44989e-05 4.0606e-05 1.56186e-05 4.3962e-05 4.00679e-05 1.70829e-05 4.41204e-05 
3.95385e-05 1.81807e-05 4.42225e-05 3.79309e-05 2.01246e-05 4.50112e-05 3.25362e-05 2.38182e-05 4.60113e-05 
3.00863e-05 2.43253e-05 4.65324e-05 2.33264e-05 2.4187e-05 4.63409e-05 2.01496e-05 2.11472e-05 4.79813e-05 
2.33511e-05 2.57828e-06 4.90657e-05 3.06868e-05 3.10235e-06 4.96078e-05 3.95195e-05 7.21795e-06 4.51225e-05 
3.93385e-05 1.90727e-05 4.36543e-05 3.45065e-05 2.23482e-05 4.64667e-05 3.15636e-05 2.44187e-05 4.57079e-05 
2.90366e-05 2.51418e-05 4.55479e-05 2.91581e-05 2.32237e-06 4.93252e-05 2.20479e-05 2.31609e-05 4.70941e-05 
2.10247e-05 2.19275e-05 4.78217e-05 1.79892e-05 7.3892e-06 4.90465e-05 1.92662e-05 5.1152e-06 4.88024e-05 
2.07451e-05 3.51017e-06 4.86017e-05 2.19161e-05 2.96005e-06 4.87973e-05 3.40516e-05 2.55444e-06 4.7443e-05 
4.00825e-05 8.9434e-06 4.51609e-05 4.09173e-05 1.02836e-05 4.39245e-05 4.13184e-05 1.41974e-05 4.28316e-05 
4.0766e-05 1.6571e-05 4.28189e-05 4.01952e-05 1.80273e-05 4.28738e-05 3.85664e-05 2.02775e-05 4.3702e-05 
3.04653e-05 2.51418e-05 4.50315e-05 2.53881e-05 2.52423e-05 4.53739e-05 2.39881e-05 2.50645e-05 4.52197e-05 
1.98403e-05 2.18168e-05 4.70667e-05 2.49389e-05 2.04983e-06 4.90248e-05 3.051e-05 1.84532e-06 4.8556e-05 
4.02406e-05 7.5775e-06 4.3963e-05 4.13635e-05 1.00006e-05 4.25735e-05 4.14031e-05 1.53606e-05 4.17811e-05 
4.09832e-05 1.68929e-05 4.17474e-05 3.78032e-05 2.15556e-05 4.31688e-05 2.00123e-05 1.83788e-05 4.98308e-05 
3.38849e-05 2.35674e-05 4.53464e-05 3.20264e-05 2.50793e-05 4.41713e-05 2.76009e-05 2.35347e-06 4.95178e-05 
2.92882e-05 2.58037e-05 4.41534e-05 2.33288e-05 2.53488e-05 4.43007e-05 2.14347e-05 2.41884e-05 4.5112e-05 
2.05682e-05 2.26115e-05 4.67351e-05 1.70959e-05 1.71498e-05 4.81587e-05 1.64116e-05 1.22228e-05 4.86493e-05 
2.50524e-05 1.22248e-06 4.82012e-05 2.64601e-05 1.61283e-06 4.88157e-05 2.84134e-05 1.25237e-06 4.84172e-05 
2.87468e-05 3.24183e-07 4.72213e-05 3.13875e-05 1.03579e-06 4.73048e-05 4.07828e-05 8.9857e-06 4.36493e-05 
2.85558e-05 6.02055e-06 5.17915e-05 4.1459e-05 1.14576e-05 4.27699e-05 2.88378e-05 8.54335e-06 5.26526e-05 
1.88353e-05 2.62013e-06 4.61633e-05 4.1698e-05 1.27999e-05 4.19617e-05 3.6541e-05 2.72038e-06 4.51249e-05 
4.04912e-05 1.83157e-05 4.14553e-05 3.96263e-05 1.94517e-05 4.24092e-05 3.87432e-05 2.07035e-05 4.25356e-05 
3.54438e-05 2.24241e-05 4.54415e-05 3.07349e-05 2.5756e-05 4.35467e-05 2.84359e-05 2.63104e-05 4.31233e-05 
1.67495e-05 1.80197e-05 4.72694e-05 1.57142e-05 1.28406e-05 4.78518e-05 1.92439e-05 3.93526e-06 4.79105e-05 
2.36825e-05 1.54726e-06 4.81788e-05 2.99899e-05 7.1086e-07 4.74396e-05 3.42812e-05 1.52347e-06 4.60018e-05 
4.07022e-05 7.88695e-06 4.30487e-05 4.18069e-05 1.3996e-05 4.10724e-05 3.92907e-05 2.04681e-05 4.13266e-05 
3.4651e-05 2.36854e-05 4.42945e-05 3.20308e-05 2.55572e-05 4.30048e-05 2.9439e-05 2.63197e-05 4.27371e-05 
2.73579e-05 2.63961e-05 4.3054e-05 1.75762e-05 9.11275e-06 4.93183e-05 2.64014e-05 2.63785e-05 4.30417e-05 
2.18485e-05 2.5034e-05 4.38947e-05 2.75562e-05 2.49644e-05 4.60671e-05 2.01062e-05 2.40197e-05 4.41608e-05 
2.06698e-05 2.36462e-05 4.54274e-05 1.93878e-05 2.22952e-05 4.61156e-05 1.51741e-05 1.57103e-05 4.64846e-05 
3.27342e-05 1.02654e-05 5.19906e-05 1.50955e-05 1.4298e-05 4.68685e-05 3.61304e-05 1.85206e-05 4.84432e-05 
1.55676e-05 1.12742e-05 4.76728e-05 2.63432e-05 8.01715e-07 4.7936e-05 3.07072e-05 6.31885e-08 4.62865e-05 
3.5323e-05 2.28385e-06 4.60058e-05 3.96289e-05 5.5939e-06 4.33449e-05 4.03386e-05 6.8254e-06 4.30128e-05 
4.15552e-05 9.24705e-06 4.13391e-05 4.17314e-05 1.06153e-05 4.15013e-05 4.20532e-05 1.25627e-05 4.02252e-05 
[...]
CELL_DATA 3
FIELD FieldData 2
cell_id 1 3 int
0 1 2
METADATA
INFORMATION 0
cell_type_id 1 3 int
0 0 0
METADATA
INFORMATION 0
