# vtk DataFile Version 4.2
vtk output
ASCII
DATASET UNSTRUCTURED_GRID
POINTS 8 double
0 0 0 7e-06 0 0 7e-06 0 7e-06 
0 0 7e-06 0 7e-06 0 7e-06 7e-06 0 
0 7e-06 7e-06 7e-06 7e-06 7e-06 
METADATA
INFORMATION 2
NAME L2_NORM_RANGE LOCATION vtkDataArray
DATA 2 0 1.21244e-05 
NAME L2_NORM_FINITE_RANGE LOCATION vtkDataArray
DATA 2 0 1.21244e-05 

CELLS 1 50
49 12 3 0 1 3 3 2 3 1 3 0 4 1 3 5 1 4 3 0 3 4 3 6 4 3 3 1 5 2 3 7 2 5 3 5 4 7 3 6 7 4 3 3 2 6 3 7 6 2 

CELL_TYPES 1
42

CELL_DATA 1
FIELD FieldData 1
cell_type_id 1 1 int
0
METADATA
INFORMATION 0

