# vtk DataFile Version 4.2
vtk output
ASCII
DATASET UNSTRUCTURED_GRID
POINTS 27970 float
-5.1493e-06 1.2863e-05 -6.8647e-06 6.1827e-06 4.1924e-06 4.7281e-06 -4.7043e-06 2.1828e-05 -5.6692e-06 
3.5233e-06 4.7212e-06 1.2663e-06 1.3912e-05 1.4699e-05 8.3498e-06 8.343e-06 7.0772e-06 4.0295e-06 
1.4336e-05 1.329e-05 9.0346e-06 8.7237e-06 5.9324e-06 5.6108e-06 2.7323e-06 3.2924e-06 1.9142e-06 
-1.4123e-05 1.7395e-05 2.0366e-06 1.9366e-06 2.8554e-05 8.0629e-06 3.8371e-07 2.8767e-05 -2.3291e-06 
1.2383e-05 1.9834e-05 2.431e-06 1.3689e-05 1.5584e-05 8.5982e-06 4.0623e-06 1.3779e-05 -8.2335e-06 
1.3782e-05 1.4604e-05 5.3577e-06 5.7157e-06 1.1745e-05 -3.9055e-06 1.2686e-05 1.9755e-05 1.0769e-05 
1.3088e-05 1.5136e-05 1.3411e-05 -5.7475e-06 2.7861e-05 3.3131e-06 1.4001e-05 1.4586e-05 9.4547e-06 
-4.972e-06 2.7648e-05 1.3146e-05 1.296e-05 1.1476e-05 1.141e-05 1.346e-05 1.0991e-05 1.0393e-05 
4.7877e-06 2.1132e-05 -6.9449e-06 -2.9196e-06 8.927e-06 1.2546e-05 3.2014e-06 5.7807e-06 -2.3061e-07 
1.2068e-05 2.1727e-05 7.8173e-06 1.1771e-05 7.6898e-06 8.5188e-06 -9.6724e-07 2.9215e-05 8.7894e-06 
1.2944e-05 1.8384e-05 8.475e-06 4.4775e-06 2.4057e-05 -5.4759e-06 1.2827e-05 1.8283e-05 4.9733e-06 
2.3139e-06 2.8648e-05 2.4652e-06 1.2302e-05 1.6348e-05 1.4354e-05 1.2276e-05 1.5477e-05 1.412e-05 
1.2251e-05 1.4676e-05 1.3842e-05 1.274e-05 1.4012e-05 1.3203e-05 1.2439e-05 1.191e-05 1.2205e-05 
-5.5406e-06 2.6577e-05 1.4989e-06 1.2498e-05 1.0607e-05 1.1098e-05 1.2955e-05 1.021e-05 1.0234e-05 
1.276e-05 9.5964e-06 9.7962e-06 -3.8049e-06 2.0946e-05 -8.3089e-06 5.2031e-06 5.9997e-06 1.0494e-05 
-5.5064e-06 2.7259e-05 2.3103e-06 9.9438e-06 1.4916e-05 1.5271e-05 -5.7794e-06 9.3814e-06 -6.1341e-06 
1.2238e-05 2.0968e-05 7.2424e-06 -7.8821e-06 1.6613e-05 1.3393e-05 1.1534e-05 1.7956e-05 1.5136e-05 
1.1909e-05 1.7108e-05 1.4779e-05 6.8792e-06 1.5969e-05 -7.7314e-06 7.2098e-06 1.9089e-05 1.6967e-05 
-3.8042e-06 2.2933e-05 -5.1489e-06 7.9068e-06 2.0974e-05 -5.2073e-06 1.1501e-05 1.4884e-05 1.4415e-05 
1.1646e-05 1.3994e-05 1.3966e-05 5.0015e-06 2.5073e-05 1.6489e-05 1.1083e-05 1.2523e-05 1.3579e-05 
1.1671e-05 1.2166e-05 1.2966e-05 4.1904e-07 2.5114e-06 1.4389e-07 1.1956e-05 9.9108e-06 1.096e-05 
1.1191e-05 9.3847e-06 1.1108e-05 1.1857e-05 8.9633e-06 1.005e-05 1.1561e-05 8.3018e-06 9.5589e-06 
1.1178e-05 2.5007e-05 7.5331e-06 -5.6915e-06 1.4175e-05 -6.9624e-06 -7.6574e-06 2.2038e-05 -2.1279e-06 
7.6548e-06 2.7405e-05 2.5409e-06 -1.031e-05 2.2166e-05 9.596e-07 8.8159e-06 6.7927e-06 4.824e-06 
1.1233e-05 2.1396e-05 1.5342e-05 1.0998e-05 2.0483e-05 1.5528e-05 1.1146e-05 1.9536e-05 1.5466e-05 
1.104e-05 1.8643e-05 1.5475e-05 1.057e-05 1.7701e-05 1.5613e-05 1.0933e-05 1.6916e-05 1.5299e-05 
5.6758e-06 2.7922e-05 -3.1985e-07 1.0321e-05 5.9449e-06 7.2501e-06 1.0776e-05 1.5138e-05 1.4918e-05 
1.0656e-05 1.4181e-05 1.4642e-05 1.096e-05 1.3283e-05 1.4063e-05 -1.0532e-05 1.9169e-05 -2.866e-06 
9.5435e-06 8.2668e-06 4.0537e-06 1.0779e-05 1.1678e-05 1.3263e-05 3.314e-06 2.8073e-05 1.3234e-05 
1.0369e-05 1.062e-05 1.2785e-05 1.1144e-05 1.0246e-05 1.1937e-05 9.438e-06 1.1633e-05 1.3997e-05 
1.0335e-05 8.8902e-06 1.1283e-05 1.0962e-05 8.5609e-06 1.0432e-05 1.1282e-05 2.4396e-05 1.1944e-06 
-5.215e-06 1.1621e-05 -6.6416e-06 6.3115e-07 2.8873e-05 7.5326e-06 1.3784e-05 1.4795e-05 6.5194e-06 
2.661e-06 1.9547e-05 -9.2386e-06 1.0878e-06 2.8791e-05 6.7975e-06 -2.7846e-06 1.0927e-05 -7.0061e-06 
-1.2163e-05 2.4876e-05 6.5728e-06 1.0818e-05 7.6753e-06 9.4859e-06 -5.6962e-06 2.3902e-05 -1.7933e-06 
1.0481e-05 2.2202e-05 1.5611e-05 1.0338e-05 2.0002e-05 1.5861e-05 1.0277e-05 1.9183e-05 1.588e-05 
1.0242e-05 1.8409e-05 1.5845e-05 9.6439e-06 1.7867e-05 1.6056e-05 1.0323e-05 1.5929e-05 1.5386e-05 
1.2286e-05 2.1038e-05 9.1154e-06 1.0171e-05 1.3341e-05 1.4535e-05 9.5072e-06 1.2567e-05 1.4488e-05 
1.0285e-05 1.2372e-05 1.398e-05 1.0073e-05 1.1401e-05 1.3508e-05 1.1578e-05 2.2548e-05 1.4979e-05 
1.0358e-05 9.6761e-06 1.2014e-05 9.4797e-06 9.0464e-06 1.2008e-05 1.0277e-05 8.1749e-06 1.0555e-05 
1.0056e-05 7.5228e-06 9.9299e-06 1.0038e-05 6.9589e-06 9.1833e-06 -6.1912e-06 1.3039e-05 -6.6729e-06 
1.3709e-05 1.5337e-05 7.7226e-06 9.8186e-06 2.2882e-05 1.5784e-05 9.5145e-06 2.1944e-05 1.6069e-05 
9.5729e-06 2.1309e-05 -4.1227e-06 8.9858e-06 2.0448e-05 1.6407e-05 9.9599e-06 2.0999e-05 1.5994e-05 
9.6135e-06 1.984e-05 1.618e-05 9.5325e-06 1.8851e-05 1.6187e-05 9.204e-06 1.5636e-05 1.5812e-05 
4.2201e-06 2.0544e-05 1.7431e-05 9.0627e-06 1.4692e-05 1.5581e-05 9.5487e-06 1.4022e-05 1.5133e-05 
8.7167e-06 1.3472e-05 1.5258e-05 9.3907e-06 1.324e-05 1.4868e-05 7.2158e-06 2.5886e-05 1.5782e-05 
9.9074e-06 7.4706e-06 5.2682e-06 8.793e-06 1.1948e-05 1.4479e-05 9.39e-06 1.0695e-05 1.3405e-05 
9.4062e-06 9.8175e-06 1.2728e-05 1.0593e-05 8.2485e-06 5.1633e-06 9.5105e-06 8.3323e-06 1.1276e-05 
9.4557e-06 7.7192e-06 1.0626e-05 -3.8103e-06 2.3592e-05 -4.2519e-06 9.3726e-06 7.0707e-06 9.8708e-06 
9.1941e-06 6.4396e-06 9.114e-06 9.8536e-06 6.3376e-06 8.3946e-06 1.0742e-06 2.767e-05 -4.322e-06 
1.3487e-05 1.6725e-05 1.0565e-05 -9.3995e-06 1.1064e-05 8.9231e-06 -1.0755e-05 1.5073e-05 -6.1046e-06 
5.4545e-06 1.569e-05 1.6867e-05 1.7716e-06 3.5319e-06 6.3556e-06 3.9302e-06 8.1586e-06 -1.978e-06 
-6.2674e-06 2.3005e-05 -2.3525e-06 8.8666e-06 1.9535e-05 1.6466e-05 2.9918e-06 2.8425e-05 4.9391e-06 
8.8258e-06 1.8501e-05 1.6436e-05 8.8463e-06 1.7433e-05 1.6314e-05 8.6118e-06 1.6469e-05 1.6232e-05 
8.4747e-06 1.4102e-05 1.5604e-05 -2.4618e-06 2.9417e-05 1.3279e-05 8.5013e-06 1.2708e-05 1.5001e-05 
6.5931e-07 1.5266e-05 1.682e-05 8.4332e-06 1.0054e-05 1.3406e-05 -1.7075e-06 2.9439e-05 7.3601e-06 
8.7443e-06 8.4622e-06 1.1865e-05 8.0274e-06 1.712e-05 -6.8246e-06 1.188e-05 2.2562e-05 8.7003e-06 
8.7701e-06 7.2337e-06 1.0488e-05 8.496e-06 6.6221e-06 9.8716e-06 8.3418e-06 6.0341e-06 9.1176e-06 
9.0677e-06 5.7125e-06 8.0354e-06 6.2394e-06 1.2621e-05 -4.2837e-06 -1.1786e-05 2.0076e-05 -2.6445e-07 
6.981e-06 7.224e-06 2.4183e-06 7.0796e-06 2.3402e-05 -4.4142e-06 -1.2953e-05 2.2101e-05 6.4511e-06 
4.2789e-06 1.4279e-05 1.6613e-05 -3.0878e-06 2.5289e-05 -2.8078e-06 -8.9322e-06 1.9087e-05 1.2763e-05 
2.0466e-06 2.8383e-05 1.2645e-05 -1.8867e-06 3.022e-06 -1.2314e-06 -6.5954e-07 1.4513e-05 -8.1632e-06 
8.5919e-06 2.293e-05 1.6254e-05 2.346e-06 2.8276e-05 1.3787e-05 -7.4474e-06 1.3982e-05 1.2902e-05 
8.141e-06 1.9264e-05 1.6703e-05 8.0824e-06 1.8239e-05 1.6666e-05 7.9014e-06 1.718e-05 1.6594e-05 
8.0835e-06 7.4677e-06 3.3433e-06 7.5783e-06 1.6204e-05 1.651e-05 1.1979e-05 1.7097e-05 -2.6009e-06 
8.1822e-06 1.5647e-05 1.6188e-05 8.285e-06 1.4904e-05 1.5944e-05 7.6973e-06 1.3417e-05 1.5607e-05 
1.29e-05 1.7656e-05 1.0167e-06 7.587e-06 1.2578e-05 1.5262e-05 8.5396e-06 1.1025e-05 1.4035e-05 
1.2886e-05 8.0883e-06 7.6448e-06 1.3661e-05 1.2615e-05 1.161e-05 -3.4393e-06 1.5501e-05 -7.7017e-06 
7.9504e-06 6.945e-06 1.0612e-05 -2.8755e-06 5.0754e-06 7.629e-06 5.8359e-06 1.9257e-05 -7.3868e-06 
-1.3298e-05 2.0746e-05 2.3501e-06 1.2962e-05 1.7624e-05 3.9456e-06 -6.9207e-06 2.6167e-05 2.4948e-06 
-4.0311e-06 2.8095e-05 1.7545e-06 7.7651e-06 1.0218e-05 7.0411e-08 7.3977e-06 2.3534e-05 1.6469e-05 
7.2134e-06 2.2703e-05 1.6694e-05 7.6782e-06 2.2005e-05 1.6682e-05 7.3607e-06 2.1123e-05 1.6871e-05 
1.2986e-05 1.8664e-05 1.1014e-05 -9.9481e-06 1.8094e-05 -4.9927e-06 4.5762e-07 9.3813e-06 -7.4206e-06 
1.0839e-05 2.5918e-05 3.4487e-06 7.2822e-06 1.7941e-05 1.6864e-05 6.8695e-06 1.6965e-05 1.6843e-05 
7.4594e-06 1.5219e-05 1.63e-05 7.7271e-06 2.1871e-05 -4.8508e-06 7.5407e-06 1.4316e-05 1.5994e-05 
6.9858e-06 1.2093e-05 1.5204e-05 7.2578e-06 1.2838e-05 -3.3708e-06 -1.2149e-05 2.1044e-05 1.4717e-06 
7.1891e-06 8.6002e-06 1.2717e-05 7.4229e-06 7.3526e-06 1.1356e-05 -5.3446e-06 2.2462e-05 -4.084e-06 
7.1146e-06 6.7344e-06 1.0757e-05 7.423e-06 5.652e-06 9.0785e-06 -5.7775e-07 2.9215e-05 5.6088e-06 
7.2939e-06 4.7435e-06 7.5274e-06 -1.419e-05 1.7386e-05 1.2321e-06 1.3773e-07 2.893e-05 9.3871e-06 
7.6749e-06 2.7099e-05 1.2325e-05 1.1938e-05 1.0852e-05 1.1806e-05 4.4082e-07 2.872e-05 1.3766e-05 
8.2492e-06 5.0346e-06 7.4159e-06 1.2711e-05 2.0421e-05 1.4562e-05 2.8669e-06 2.8499e-05 3.429e-06 
7.9329e-06 2.0208e-05 1.677e-05 6.7613e-06 2.445e-05 1.6385e-05 6.3418e-06 2.3435e-05 1.6737e-05 
-1.1336e-05 2.2278e-05 9.4955e-06 6.7568e-06 2.1934e-05 1.6924e-05 -6.516e-06 2.6834e-05 2.8999e-06 
6.448e-06 2.1135e-05 1.7078e-05 3.0587e-06 2.3016e-05 1.7155e-05 6.6778e-06 2.0231e-05 1.7092e-05 
6.2662e-06 1.9255e-05 1.7178e-05 6.3188e-06 1.8149e-05 1.7112e-05 2.1834e-06 7.7433e-06 -3.5131e-06 
6.6263e-06 1.5733e-05 1.6652e-05 -1.404e-06 2.4879e-05 1.6052e-05 6.7917e-06 1.4734e-05 1.6334e-05 
-3.0205e-07 2.93e-05 6.6571e-07 6.7328e-06 1.2868e-05 1.5648e-05 6.7603e-06 1.1324e-05 1.4849e-05 
6.3146e-06 1.0606e-05 1.4529e-05 6.7737e-06 1.0002e-05 1.3987e-05 3.3209e-06 2.8268e-05 7.093e-06 
6.567e-06 9.2037e-06 1.3444e-05 -1.8174e-06 2.939e-05 9.6925e-06 6.4268e-06 6.9654e-06 1.1315e-05 
6.2938e-06 6.3539e-06 1.0613e-05 6.1578e-06 5.8507e-06 9.9737e-06 -1.2802e-05 1.5071e-05 -5.0166e-06 
6.4545e-06 5.4574e-06 9.2612e-06 6.8184e-06 5.0897e-06 8.4651e-06 6.2439e-06 4.5729e-06 7.7822e-06 
6.6821e-06 4.2324e-06 6.8006e-06 -8.0032e-06 1.8524e-05 -6.6044e-06 6.5265e-06 2.7466e-05 9.3041e-06 
7.6394e-06 2.7272e-05 7.5739e-06 -1.2469e-05 2.2883e-05 4.3014e-06 2.063e-06 2.8669e-05 3.8087e-06 
4.7507e-06 1.6871e-05 -9.4181e-06 4.8884e-06 2.8e-05 4.4357e-06 5.7611e-06 2.6061e-05 1.6018e-05 
6.1068e-06 2.5033e-05 1.6331e-05 6.0849e-06 2.2693e-05 1.6939e-05 5.7968e-06 2.1815e-05 1.7126e-05 
1.3679e-05 8.9185e-06 7.429e-06 2.3472e-06 8.7522e-06 -4.4477e-06 5.6659e-06 1.9872e-05 1.7285e-05 
5.938e-06 1.7266e-05 1.7078e-05 6.0617e-06 1.6421e-05 1.6914e-05 1.1697e-05 2.3149e-05 7.6253e-06 
6.0193e-06 1.4771e-05 1.6519e-05 5.7013e-06 1.3019e-05 1.5944e-05 6.035e-06 1.2044e-05 1.5424e-05 
5.8616e-06 1.1253e-05 1.5027e-05 -1.3598e-05 1.5813e-05 -2.5457e-06 5.6668e-06 8.9304e-06 1.3459e-05 
[...]
CELL_DATA 16
FIELD FieldData 8
cell_id 1 16 int
0 1 2 3 4 5 6 7 8 
9 10 11 12 13 14 15 
METADATA
INFORMATION 0

cell_type_id 1 16 int
0 1 2 3 4 5 6 7 8 
9 10 11 12 13 14 15 
METADATA
INFORMATION 0

cell_area 1 16 float
2.454e-09 2.465e-09 2.455e-09 2.454e-09 2.375e-09 2.37e-09 2.343e-09 2.342e-09 2.292e-09 
2.31e-09 2.253e-09 2.239e-09 2.189e-09 2.174e-09 2.159e-09 2.152e-09 
METADATA
INFORMATION 0

cell_volume 1 16 float
1.022e-14 1.025e-14 1.022e-14 1.022e-14 9.692e-15 9.693e-15 9.452e-15 9.467e-15 9.262e-15 
9.311e-15 8.966e-15 9.008e-15 8.69e-15 8.685e-15 8.374e-15 8.402e-15 
METADATA
INFORMATION 0

cell_pressure 1 16 float
116 113.2 118.5 112.5 118.4 125.3 117.6 110.8 121.8 
118.1 119.6 115.5 116.9 108.8 122.4 124.6 
METADATA
INFORMATION 0

cell_growth_rate 1 16 float
0 0 0 0 0 0 0 0 0 
0 0 0 0 0 0 0 
METADATA
INFORMATION 0

cell_division_vol 1 16 float
1e+20 1e+20 1e+20 1e+20 1e+20 1e+20 1e+20 1e+20 1e+20 
1e+20 1e+20 1e+20 1e+20 1e+20 1e+20 1e+20 
METADATA
INFORMATION 0

cell_is_static 1 16 int
0 0 0 0 0 0 0 0 0 
0 0 0 0 0 0 0 
METADATA
INFORMATION 0

