# vtk DataFile Version 4.2
vtk output
ASCII
DATASET UNSTRUCTURED_GRID
POINTS 49133 float
2.7557e-05 -1.2545e-05 -7.1375e-06 2.0464e-05 -1.7906e-05 -1.9306e-06 1.1223e-05 -1.7165e-05 -6.8171e-06
1.4683e-05 -7.6310e-06 9.0525e-06 8.0806e-06 1.4469e-06 -1.1069e-05 2.3925e-05 -1.6173e-05 5.1368e-07
3.0905e-05 -8.2534e-06 -2.9002e-06 3.0113e-05 -9.9906e-06 -1.6256e-06 3.0907e-05 -5.8795e-06 -7.1060e-06
3.0178e-05 -9.7031e-06 -4.1297e-06 3.0503e-05 -8.5098e-06 -5.4132e-06 2.8595e-05 -1.2392e-05 -2.1430e-06
3.0025e-05 -7.6335e-06 -8.1629e-06 2.8904e-05 -1.1811e-05 -4.2228e-06 2.9617e-05 -9.7600e-06 -6.6602e-06
2.7595e-05 -1.3535e-05 -3.1463e-06 2.7863e-05 -1.2843e-05 -5.3867e-06 2.5712e-05 -1.4651e-05 1.5965e-06
2.6683e-05 -1.4306e-05 -4.3061e-07 2.3491e-05 -1.6114e-05 1.7644e-06 2.9560e-05 -6.5136e-06 -9.9319e-06
2.9414e-05 -5.3925e-06 -1.0700e-05 2.8965e-05 -9.5303e-06 -8.6457e-06 2.5425e-05 -1.5322e-05 -2.5028e-07
2.5904e-05 -1.5112e-05 -2.0309e-06 2.6066e-05 -1.4867e-05 -4.0719e-06 2.3997e-05 -1.6366e-05 -1.2511e-06
2.2063e-05 -1.6653e-05 2.2411e-06 2.7977e-05 -5.1807e-06 -1.2745e-05 2.7614e-05 -7.6550e-06 -1.2175e-05
2.7042e-05 -1.2043e-05 -9.0285e-06 2.7472e-05 -1.0210e-05 -1.0511e-05 2.6194e-05 -1.4190e-05 -6.4774e-06
2.4510e-05 -1.6067e-05 -3.3897e-06 2.4952e-05 -1.5391e-05 -5.7470e-06 2.2864e-05 -1.6708e-05 6.4363e-07
2.0406e-05 -1.6657e-05 3.8101e-06 1.9706e-05 -1.7403e-05 2.2853e-06 2.6303e-05 -6.7377e-06 -1.3933e-05
2.6557e-05 -3.7901e-06 -1.4440e-05 2.6133e-05 -9.7447e-06 -1.2496e-05 2.5944e-05 -1.1662e-05 -1.1024e-05
2.5357e-05 -1.3586e-05 -9.2569e-06 2.4617e-05 -1.5011e-05 -7.5867e-06 2.2004e-05 -1.7384e-05 -2.4324e-06
2.2135e-05 -1.7233e-05 -4.1509e-06 1.9047e-05 -1.6934e-05 3.9325e-06 2.1149e-05 -1.7514e-05 3.3445e-08
1.6803e-05 -1.6909e-05 4.4725e-06 2.3932e-05 -6.3672e-06 -1.5786e-05 2.4322e-05 -8.3819e-06 -1.4784e-05
2.4046e-05 -1.1918e-05 -1.2606e-05 2.2822e-05 -1.0549e-05 -1.4481e-05 2.3042e-05 -1.3933e-05 -1.1210e-05
2.2641e-05 -1.5835e-05 -8.4149e-06 2.0579e-05 -1.7867e-05 -3.1618e-06 2.0489e-05 -1.7594e-05 -5.5884e-06
1.8873e-05 -1.7933e-05 9.0633e-07 1.8429e-05 -1.8335e-05 -1.4942e-06 1.7500e-05 -1.7665e-05 2.5864e-06
2.2520e-05 -1.6151e-06 -1.7032e-05 2.3019e-05 -3.8103e-06 -1.6759e-05 2.2328e-05 -8.1136e-06 -1.6017e-05
2.1198e-05 -6.4628e-06 -1.7027e-05 1.8163e-05 -8.1790e-06 -1.7205e-05 2.1924e-05 -1.2943e-05 -1.3057e-05
1.9068e-05 -1.6925e-05 -8.8019e-06 2.0335e-05 -1.5422e-05 -1.0914e-05 1.8471e-05 -1.8295e-05 -3.9158e-06
1.6973e-05 -1.8324e-05 9.1161e-09 1.5647e-05 -1.7038e-05 4.2321e-06 1.5518e-05 -1.7724e-05 2.5466e-06
1.4959e-05 -1.8033e-05 1.3883e-06 1.6491e-05 -1.0881e-05 -1.6037e-05 2.0668e-05 4.9740e-08 -1.7515e-05
2.0688e-05 -3.0454e-06 -1.7706e-05 1.8784e-05 -6.3693e-06 -1.7676e-05 1.9734e-05 -1.0878e-05 -1.5553e-05
1.9991e-05 -8.2523e-06 -1.6808e-05 1.8866e-05 -1.4135e-05 -1.3092e-05 1.7442e-05 -1.5515e-05 -1.1710e-05
1.7479e-05 -1.7940e-05 -6.6117e-06 1.6465e-05 -1.7406e-05 -8.3961e-06 1.4718e-05 -1.8392e-05 -6.9931e-07
1.6008e-05 -1.8542e-05 -1.9679e-06 1.6263e-05 -1.8378e-05 -4.8301e-06 1.7279e-05 -2.4609e-06 -1.8320e-05
1.8550e-05 5.7672e-07 -1.7897e-05 1.6607e-05 -5.1640e-06 -1.8135e-05 1.7831e-05 -1.0002e-05 -1.6430e-05
1.6608e-05 -1.4238e-05 -1.3329e-05 1.5329e-05 -1.7936e-05 -6.8202e-06 1.3609e-05 -1.8319e-05 -3.6909e-06
2.2503e-05 -3.4157e-06 6.6538e-06 1.3173e-05 -1.8009e-05 4.2616e-07 1.2987e-05 -1.8231e-05 -1.5551e-06
1.4599e-05 2.7997e-06 -1.7395e-05 1.6263e-05 1.7441e-06 -1.7799e-05 1.5846e-05 -5.4616e-07 -1.8233e-05
1.5106e-05 -3.3686e-06 -1.8291e-05 1.6029e-05 -7.7697e-06 -1.7485e-05 1.5647e-05 -1.1546e-05 -1.5609e-05
1.2684e-05 -1.3882e-05 -1.3169e-05 1.3510e-05 -1.6476e-05 -9.8955e-06 1.2055e-05 -1.8048e-05 -2.8847e-06
1.2213e-05 -1.7870e-05 -5.0636e-06 1.2710e-05 -1.7478e-05 -7.1501e-06 1.2085e-05 -1.7793e-05 3.0081e-07
1.3972e-05 1.0482e-06 -1.7788e-05 1.3860e-05 -1.4017e-06 -1.8129e-05 1.4207e-05 -5.2401e-06 -1.7995e-05
1.3236e-05 -9.8312e-06 -1.6313e-05 1.2597e-05 -7.6667e-06 -1.7088e-05 1.2605e-05 -1.1647e-05 -1.5062e-05
1.0782e-05 -1.0319e-05 -1.5275e-05 1.1291e-05 -1.5456e-05 -1.0563e-05 1.0178e-05 -1.7091e-05 -5.6089e-06
1.1143e-05 -1.6471e-05 -8.5889e-06 1.0281e-05 -1.7482e-05 -1.9206e-06 1.0406e-05 -1.7487e-05 -3.6082e-06
1.2711e-05 2.8944e-06 -1.7010e-05 1.1841e-05 -7.8288e-07 -1.7611e-05 1.2744e-05 -3.6087e-06 -1.7924e-05
1.0735e-05 -8.1585e-06 -1.6312e-05 9.3968e-06 -1.1868e-05 -1.3480e-05 9.5274e-06 -1.5419e-05 -9.2736e-06
9.6848e-06 -1.4265e-05 -1.1182e-05 8.6674e-06 -1.6117e-05 -6.5260e-06 9.0453e-06 -1.6820e-05 -4.2870e-06
1.6717e-05 -1.2279e-05 -1.5079e-05 1.1450e-05 1.0894e-06 -1.7145e-05 1.0212e-05 -5.7596e-07 -1.6978e-05
9.8128e-06 -3.0164e-06 -1.6970e-05 1.0715e-05 -6.2266e-06 -1.6917e-05 8.5511e-06 -1.0095e-05 -1.4214e-05
8.7643e-06 -7.2987e-06 -1.5682e-05 7.7837e-06 -1.4076e-05 -9.6713e-06 8.3263e-06 -1.3117e-05 -1.1481e-05
7.2968e-06 -1.4760e-05 -7.7607e-06 8.5276e-06 -5.0317e-06 -1.6122e-05 7.5342e-06 -1.1386e-05 -1.2497e-05
6.3278e-06 -1.3440e-05 -8.7224e-06 6.7932e-06 -1.2825e-05 -1.0243e-05 7.6785e-06 -2.9047e-06 -1.5748e-05
6.5267e-06 -7.4128e-06 -1.4042e-05 5.5822e-06 -9.5458e-06 -1.1967e-05 4.7342e-06 -1.2003e-05 -8.2155e-06
5.1831e-06 -1.1269e-05 -9.9163e-06 5.1870e-06 -1.3307e-05 -6.8504e-06 9.3876e-06 4.5416e-06 -4.9916e-06
2.7238e-05 3.2574e-06 -1.2305e-05 8.9486e-06 -9.5284e-06 2.8102e-06 4.4700e-06 -9.7161e-06 -1.0336e-05
4.4871e-06 -8.3966e-06 -1.1375e-05 1.6096e-05 3.2666e-06 -1.7319e-05 3.9454e-06 -1.0245e-05 -8.8867e-06
5.5053e-06 -2.8439e-06 -5.4768e-06 6.9337e-06 -2.0581e-06 3.0522e-06 9.8363e-06 -9.9992e-06 3.5951e-06
2.4958e-05 -1.4068e-06 5.8667e-06 7.2527e-06 -4.9331e-07 -1.2746e-05 1.8462e-05 -4.2195e-06 -1.8103e-05
1.4263e-05 -1.7972e-05 -6.3494e-06 1.0664e-05 -1.7378e-05 -5.0943e-06 2.2555e-05 -5.0752e-06 -1.6799e-05
2.3278e-05 -1.1871e-05 -1.3193e-05 3.0741e-05 -8.3966e-06 -4.2198e-06 2.2082e-05 -5.6177e-06 6.4599e-06
2.3665e-05 -1.5801e-05 -7.1170e-06 9.4934e-06 -1.6908e-05 -5.0178e-06 1.3986e-05 -1.4704e-05 -1.2606e-05
7.1355e-06 -1.5182e-05 -6.3700e-06 6.0229e-06 -1.4315e-05 -6.3515e-06 8.0324e-06 -1.4905e-05 -8.5419e-06
1.1675e-05 -1.7829e-05 -5.7309e-07 5.5123e-06 -1.0335e-05 -1.1277e-05 1.6515e-05 -1.7400e-05 3.4345e-06
9.3316e-06 -7.1323e-06 -1.6037e-05 2.9539e-05 -1.0686e-05 -4.8194e-06 5.2492e-06 -7.7364e-06 -1.2657e-05
1.4428e-05 -8.7591e-06 -1.7010e-05 2.1235e-05 -1.7215e-05 1.3615e-06 7.6593e-06 -8.6646e-06 -1.4395e-05
2.2218e-05 -1.6825e-05 -6.1766e-06 1.6441e-05 -1.7721e-05 2.5542e-06 1.2184e-05 -1.4855e-05 -1.1858e-05
2.2916e-05 -1.6633e-05 -5.5606e-06 1.4189e-05 -1.2945e-05 -1.4406e-05 2.8496e-05 -8.5658e-06 -1.0390e-05
2.0788e-05 -1.6993e-05 -7.4359e-06 1.7679e-05 -1.1199e-05 -1.5756e-05 6.1990e-06 -1.8379e-06 -7.9314e-06
2.9313e-05 -8.2539e-06 -9.2000e-06 1.7808e-05 -1.3090e-05 -1.4318e-05 2.1670e-05 -1.6825e-05 -6.9424e-06
1.6119e-05 -1.8007e-05 1.6238e-06 2.3810e-05 -1.5460e-05 3.0238e-06 6.0457e-06 -1.1268e-05 -1.1072e-05
1.3133e-05 -1.5335e-05 -1.1578e-05 1.5325e-05 -1.5258e-05 -1.2118e-05 1.4776e-05 -1.8490e-05 -1.9469e-06
9.0325e-06 4.1930e-07 4.9381e-06 2.4812e-05 -1.5039e-05 2.4053e-06 1.9627e-05 -1.2724e-05 -1.4229e-05
7.8899e-06 -1.5464e-05 -7.0521e-06 2.7392e-05 9.6909e-07 -1.3320e-05 1.7738e-05 -1.7221e-05 3.6990e-06
1.4400e-05 -1.7694e-05 2.4082e-06 1.1848e-05 -1.7982e-05 -1.6752e-06 1.5659e-05 -1.6168e-05 -1.0834e-05
1.9613e-05 -1.8134e-05 -2.6704e-06 1.7277e-05 -1.8049e-05 1.2841e-06 1.2529e-05 -1.8045e-05 -6.0898e-07
8.5681e-06 2.2328e-06 -1.2354e-05 9.3910e-06 -1.7083e-05 -3.2460e-06 4.6375e-06 -6.0179e-06 -7.1040e-07
2.6476e-05 -5.1187e-06 -1.4275e-05 2.3519e-05 -1.6667e-05 -2.8452e-06 1.9414e-05 -1.8081e-05 -6.7901e-07
1.4351e-05 -1.7247e-05 -8.5533e-06 2.0169e-05 -1.7617e-05 1.0335e-06 5.5820e-06 -2.3513e-06 -2.3996e-06
2.7854e-05 -1.3248e-05 -1.3563e-06 1.9661e-05 -1.7349e-05 -7.3431e-06 2.8362e-05 -1.1454e-05 -7.2539e-06
8.7838e-06 -1.5821e-05 -7.5452e-06 1.4319e-05 -1.8223e-05 -5.2252e-06 1.7981e-05 -1.6835e-05 4.4661e-06
1.5428e-05 -9.8299e-06 -1.6604e-05 2.2365e-05 -1.7125e-05 -5.4455e-07 9.6297e-06 -9.1547e-06 -1.5372e-05
8.5946e-06 -1.4239e-05 -1.0284e-05 1.8254e-05 -1.8240e-05 -2.8587e-07 6.9217e-06 -9.5193e-06 -1.3326e-05
1.5229e-05 -1.8522e-05 -2.9990e-06 2.8542e-05 6.3075e-07 -1.2056e-05 2.8951e-05 -1.1371e-05 -5.5624e-06
5.9305e-06 -8.4219e-06 -1.3023e-05 9.5509e-06 -1.6368e-05 -7.1626e-06 2.0895e-05 -1.6959e-05 2.6269e-06
1.3201e-05 -1.7826e-05 -6.2866e-06 1.3832e-05 -1.7885e-05 1.4649e-06 1.9439e-05 -1.4232e-06 -1.7994e-05
1.4633e-05 -1.4180e-05 -1.3301e-05 1.1083e-05 -1.3243e-05 -1.3167e-05 1.1345e-05 -1.4269e-05 -1.2196e-05
8.8547e-06 3.3514e-06 -6.8259e-06 5.9376e-06 -1.3890e-05 -7.1932e-06 2.2926e-05 -1.6020e-05 2.8587e-06
2.0867e-05 -1.6300e-05 -9.0516e-06 2.6613e-05 -1.4508e-05 -2.9115e-06 1.8281e-05 -1.7397e-05 -7.9963e-06
2.6849e-05 -1.4288e-05 -1.6637e-06 7.7613e-06 9.7562e-07 -9.5211e-06 2.3962e-05 -1.4691e-05 -9.1718e-06
9.5848e-06 -1.3151e-05 -1.2409e-05 7.8834e-06 -1.6061e-05 -4.9822e-06 1.8607e-05 -1.7397e-05 2.9556e-06
1.9941e-05 -1.7807e-05 3.5217e-07 7.5411e-06 -1.5661e-05 -5.7067e-06 1.8497e-05 -1.8349e-05 -2.7765e-06
1.9989e-05 -1.7002e-05 3.2272e-06 1.7492e-05 -1.8465e-05 -3.2136e-06 1.5131e-05 -1.6974e-05 -9.3208e-06
1.5837e-05 -1.8256e-05 5.2319e-07 1.2803e-05 -1.6942e-05 -8.6325e-06 7.4694e-06 -6.1587e-06 -1.5198e-05
6.0552e-06 -5.8035e-06 -1.4184e-05 2.0039e-05 -1.6098e-05 -9.9604e-06 1.7318e-05 -1.6523e-05 -1.0145e-05
1.2569e-05 -5.5922e-06 -1.7630e-05 1.6274e-05 -1.8531e-05 -3.1671e-06 7.1121e-06 -1.0481e-05 -1.2843e-05
1.8430e-05 -1.6195e-05 -1.0453e-05 1.6827e-05 -1.6359e-05 5.4229e-06 5.8714e-06 -1.1823e-05 -1.0264e-05
1.6015e-05 -1.2979e-05 -1.4536e-05 1.4726e-05 -1.8413e-05 -4.1228e-06 2.8027e-05 -1.2495e-05 1.2797e-06
2.6606e-05 -1.3212e-05 -7.8654e-06 2.1449e-05 -1.6521e-05 3.2734e-06 2.1201e-05 -1.3984e-05 -1.2354e-05
1.0956e-05 -1.1796e-05 -1.4359e-05 8.0831e-06 -5.0600e-06 3.3436e-06 1.1024e-05 -1.7753e-05 -2.6186e-06
[...]
CELL_DATA 16
FIELD FieldData 8
cell_id 1 16 int
15 16 17 18 19 20 21 22 23
24 25 26 27 28 29 30 
cell_type_id 1 16 int
0 1 2 3 4 5 6 7 8
9 10 11 12 13 14 15 
cell_area 1 16 float
2.435e-09 2.467e-09 2.433e-09 2.461e-09 2.388e-09 2.342e-09 2.306e-09 2.336e-09 2.328e-09
2.339e-09 2.254e-09 2.254e-09 2.202e-09 2.289e-09 2.231e-09 2.154e-09 
cell_volume 1 16 float
1.033e-14 1.034e-14 1.032e-14 1.034e-14 9.813e-15 9.797e-15 9.533e-15 9.557e-15 9.388e-15
9.407e-15 9.080e-15 9.086e-15 8.776e-15 8.790e-15 8.494e-15 8.499e-15 
cell_pressure 1 16 float
6.353e+01 6.159e+01 6.507e+01 6.081e+01 6.405e+01 6.806e+01 6.762e+01 6.135e+01 6.753e+01
6.251e+01 6.632e+01 6.468e+01 6.456e+01 6.059e+01 6.977e+01 6.819e+01 
cell_growth_rate 1 16 float
0.000e+00 0.000e+00 0.000e+00 0.000e+00 0.000e+00 0.000e+00 0.000e+00 0.000e+00 0.000e+00
0.000e+00 0.000e+00 0.000e+00 0.000e+00 0.000e+00 0.000e+00 0.000e+00 
cell_division_vol 1 16 float
1.346e-14 1.241e-14 1.484e-14 1.426e-14 1.303e-14 1.537e-14 1.642e-14 1.644e-14 1.238e-14
1.883e-14 1.394e-14 1.489e-14 1.530e-14 1.311e-14 1.498e-14 1.421e-14 
cell_is_static 1 16 int
0 0 0 0 0 0 0 0 0
0 0 0 0 0 0 0 