# vtk DataFile Version 4.2
vtk output
ASCII
DATASET UNSTRUCTURED_GRID
POINTS 11943 float
6.5133e-06 6.4882e-07 2.3284e-07 6.7328e-06 -4.7201e-08 6.7182e-07 6.6905e-06 -8.3378e-07 5.8734e-07 
6.4446e-06 -1.4983e-06 9.5482e-08 6.0718e-06 2.9443e-06 -6.5003e-07 6.2628e-06 2.0019e-06 3.0687e-07 
6.1349e-06 2.1802e-06 -5.2397e-07 6.3833e-06 1.4076e-06 8.105e-07 6.3458e-06 1.3561e-06 -1.0211e-07 
5.976e-06 1.5099e-06 -8.4167e-07 5.9195e-06 6.9163e-07 2.4027e-06 6.3987e-06 7.7385e-07 1.5307e-06 
6.1352e-06 7.6341e-07 -5.2334e-07 5.7772e-06 7.0919e-07 -1.2393e-06 6.3382e-06 -1.8049e-07 2.3261e-06 
6.421e-06 -3.4843e-07 4.8307e-08 6.0357e-06 -4.4723e-08 -7.2222e-07 6.2815e-06 -7.6986e-07 1.7251e-06 
6.1207e-06 -7.7691e-07 -5.5221e-07 5.78e-06 -1.0773e-06 -1.2336e-06 6.0652e-06 -1.8012e-06 8.6253e-07 
6.11e-06 -1.6009e-06 -5.7364e-07 6.2695e-06 -2.4131e-06 -2.5471e-07 5.9265e-06 -2.3117e-06 -9.4078e-07 
6.0777e-06 -3.0427e-06 -6.3832e-07 5.7492e-06 -3.2731e-06 -1.2953e-06 5.5004e-06 4.0329e-06 -1.7232e-06 
5.5885e-06 3.7526e-06 -6.6009e-07 5.6309e-06 2.944e-06 2.2173e-07 5.6324e-06 2.9797e-06 -1.5289e-06 
5.2964e-06 3.0118e-06 -2.2009e-06 5.6579e-06 2.2286e-06 1.0191e-06 5.6593e-06 2.0189e-06 -1.4751e-06 
5.1611e-06 2.2411e-06 -2.4714e-06 5.2895e-06 1.4433e-06 2.5383e-06 5.6609e-06 1.4888e-06 1.8841e-06 
5.3775e-06 1.4626e-06 -2.0386e-06 5.5153e-06 6.6687e-07 3.0859e-06 5.3679e-06 6.6928e-07 -2.0579e-06 
5.0288e-06 6.9059e-07 -2.736e-06 5.5419e-06 -1.9016e-07 3.6031e-06 5.6362e-06 -1.0762e-07 -1.5213e-06 
5.1099e-06 -1.1863e-07 -2.5739e-06 5.436e-06 -7.6415e-07 3.0997e-06 5.4707e-06 -1.2808e-06 2.4363e-06 
5.4739e-06 -7.6936e-07 -1.846e-06 5.0208e-06 -8.9104e-07 -2.7521e-06 5.6669e-06 -1.5849e-06 1.7613e-06 
5.6246e-06 -1.8017e-06 -1.5444e-06 5.2821e-06 -1.5396e-06 -2.2294e-06 5.0336e-06 -2.1343e-06 -2.7264e-06 
5.3766e-06 -2.3081e-06 1.3808e-06 5.6506e-06 -2.5177e-06 6.9118e-07 5.3606e-06 -2.4029e-06 -2.0725e-06 
5.6219e-06 -3.0277e-06 1.3802e-07 5.3986e-06 -3.3681e-06 -1.9965e-06 5.2507e-06 -3.7608e-06 -1.232e-07 
5.473e-06 -4.3055e-06 -1.2216e-06 4.8879e-06 4.054e-06 1.1921e-07 4.9246e-06 4.5024e-06 -1.1861e-06 
4.8636e-06 3.9751e-06 -2.2267e-06 4.6274e-06 3.7174e-06 9.3626e-07 4.8749e-06 3.6154e-06 -2.904e-06 
4.9105e-06 2.967e-06 1.3605e-06 4.5883e-06 2.9049e-06 -3.6171e-06 4.8792e-06 2.2703e-06 2.23e-06 
4.767e-06 2.2429e-06 -3.2597e-06 4.2935e-06 2.1677e-06 -4.2067e-06 4.8342e-06 1.4898e-06 3.2205e-06 
4.8489e-06 1.4816e-06 -3.0959e-06 4.5059e-06 1.4578e-06 -3.7819e-06 4.5171e-06 7.5729e-07 4.5946e-06 
4.9219e-06 7.6231e-07 3.9337e-06 4.6597e-06 7.5562e-07 -3.4743e-06 4.8777e-06 -1.8626e-07 4.6825e-06 
4.5676e-06 -1.1346e-08 -3.6584e-06 4.2852e-06 -5.4449e-07 -4.2233e-06 4.5888e-06 -9.1625e-07 4.2917e-06 
4.9115e-06 -1.2131e-06 3.4206e-06 4.6481e-06 -7.7163e-07 -3.4974e-06 4.307e-06 -1.5552e-06 3.9966e-06 
4.875e-06 -1.7303e-06 2.8717e-06 4.754e-06 -1.714e-06 -3.2856e-06 4.4257e-06 -1.4899e-06 -3.9422e-06 
4.7046e-06 -2.4265e-06 2.329e-06 4.8999e-06 -2.9362e-06 -2.9939e-06 4.4905e-06 -2.2301e-06 -3.8128e-06 
4.5357e-06 -3.0373e-06 1.8842e-06 4.7825e-06 -3.2742e-06 1.2064e-06 4.8904e-06 -3.6904e-06 -2.7516e-06 
4.8585e-06 -3.7403e-06 5.3546e-07 4.8845e-06 -4.0946e-06 -1.9866e-06 4.4632e-06 -4.4947e-06 2.8824e-07 
4.7252e-06 -4.4983e-06 -1.3171e-06 3.7068e-06 5.195e-06 6.8883e-07 4.1772e-06 5.1718e-06 -3.7473e-07 
4.0919e-06 4.722e-06 -1.2831e-06 4.1379e-06 4.5202e-06 7.8456e-07 4.0729e-06 4.3205e-06 -2.0584e-06 
4.0878e-06 3.9237e-06 -2.8041e-06 3.7485e-06 3.7034e-06 2.3749e-06 4.1695e-06 3.669e-06 1.7342e-06 
4.0822e-06 3.5402e-06 -3.5369e-06 4.1554e-06 3.1113e-06 -4.3075e-06 4.1043e-06 2.4113e-06 3.3182e-06 
4.1242e-06 3.0223e-06 2.5678e-06 4.1328e-06 1.8287e-06 3.957e-06 3.9274e-06 2.2454e-06 -4.9388e-06 
3.5361e-06 1.9617e-06 -5.7215e-06 4.0452e-06 1.3818e-06 4.624e-06 4.1235e-06 1.508e-06 -4.5467e-06 
4.132e-06 6.5917e-07 5.333e-06 4.0107e-06 6.0418e-07 -4.7723e-06 4.1273e-06 -3.3697e-07 5.7194e-06 
3.9791e-06 -1.7591e-07 -4.8355e-06 3.9589e-06 -9.776e-07 5.2387e-06 3.991e-06 -9.5421e-07 -4.8117e-06 
3.9132e-06 -1.5353e-06 4.6572e-06 4.1576e-06 -1.9874e-06 -4.4785e-06 3.8271e-06 -2.2772e-06 3.9243e-06 
4.1679e-06 -2.6545e-06 2.9294e-06 3.453e-06 -3.1277e-06 3.5297e-06 3.992e-06 -3.3648e-06 2.3789e-06 
4.1364e-06 -3.4666e-06 -3.6434e-06 4.1042e-06 -2.992e-06 -4.566e-06 4.0778e-06 -3.8466e-06 1.6736e-06 
4.1426e-06 -3.9725e-06 -2.6773e-06 3.983e-06 -4.5688e-06 9.7809e-07 4.1431e-06 -4.8781e-06 -9.5434e-07 
3.9135e-06 -4.5033e-06 -1.8092e-06 3.63e-06 -5.271e-06 7.2377e-07 4.0378e-06 -5.3068e-06 -2.0413e-07 
3.1101e-06 5.6986e-06 1.0624e-06 3.341e-06 5.7836e-06 2.7214e-07 3.3928e-06 4.9823e-06 1.447e-06 
3.4119e-06 5.2642e-06 -6.7192e-07 3.3107e-06 4.5309e-06 -2.1293e-06 3.3505e-06 4.5081e-06 2.0729e-06 
3.2688e-06 4.1781e-06 -2.8263e-06 3.0165e-06 3.592e-06 3.6902e-06 3.3517e-06 3.7049e-06 3.0152e-06 
3.4102e-06 3.3778e-06 -4.261e-06 3.4102e-06 2.85e-06 3.9255e-06 3.4099e-06 3.0137e-06 -4.9539e-06 
2.8663e-06 2.7591e-06 -5.7215e-06 3.4225e-06 2.2605e-06 4.5986e-06 3.3998e-06 1.517e-06 5.5094e-06 
3.3792e-06 1.0035e-06 -5.7215e-06 3.3836e-06 7.681e-07 5.7215e-06 3.096e-06 2.1033e-07 -5.7215e-06 
3.2412e-06 8.3253e-09 5.7215e-06 3.3795e-06 -1.0327e-06 5.7215e-06 3.1817e-06 -7.6795e-07 -5.7215e-06 
3.4109e-06 -1.7862e-06 5.1749e-06 2.9492e-06 -1.4853e-06 -5.7215e-06 3.3436e-06 -2.3414e-06 4.6311e-06 
3.4053e-06 -2.5496e-06 -5.7215e-06 3.1086e-06 -3.0038e-06 4.2327e-06 3.42e-06 -3.2944e-06 -4.4138e-06 
3.2229e-06 -2.9954e-06 -5.1042e-06 2.9575e-06 -3.7659e-06 3.5812e-06 3.2955e-06 -3.8727e-06 2.9087e-06 
3.2133e-06 -4.4535e-06 2.3591e-06 3.4023e-06 -4.1172e-06 -2.8596e-06 3.3829e-06 -3.7622e-06 -3.5468e-06 
3.393e-06 -4.7885e-06 1.6745e-06 3.1978e-06 -4.6061e-06 -2.0561e-06 3.1611e-06 -5.4216e-06 1.3055e-06 
3.3954e-06 -5.6831e-06 1.1457e-07 3.3469e-06 -5.2428e-06 -7.5281e-07 2.7069e-06 -5.9893e-06 2.7166e-07 
1.9524e-06 6.3816e-06 1.8618e-06 2.5851e-06 6.1996e-06 5.9637e-07 2.5423e-06 5.9513e-06 1.6841e-06 
2.6621e-06 5.8311e-06 -5.6992e-08 2.0346e-06 4.7421e-06 3.927e-06 2.1243e-06 5.2446e-06 3.1912e-06 
2.6146e-06 5.2319e-06 2.4127e-06 2.6617e-06 5.2426e-06 -1.1766e-06 2.6735e-06 4.8837e-06 -1.852e-06 
2.6638e-06 4.48e-06 3.2169e-06 2.5915e-06 4.4893e-06 -2.6528e-06 2.6572e-06 4.014e-06 -3.5164e-06 
2.5632e-06 3.7185e-06 4.275e-06 2.6456e-06 3.6434e-06 -4.2285e-06 2.5672e-06 3.1821e-06 -5.1544e-06 
2.6493e-06 2.989e-06 4.9932e-06 2.5452e-06 2.2225e-06 5.7215e-06 2.633e-06 1.9444e-06 -5.7215e-06 
2.4184e-06 1.4826e-06 5.7215e-06 2.6373e-06 8.8146e-07 -5.7215e-06 2.421e-06 7.0936e-07 5.7215e-06 
2.6228e-06 -5.9123e-07 5.7215e-06 2.3541e-06 -7.6876e-08 -5.7215e-06 2.0423e-06 -7.9257e-07 -5.7215e-06 
2.5112e-06 -1.6621e-06 5.7215e-06 2.6214e-06 -2.4146e-06 5.7136e-06 2.5562e-06 -2.6249e-06 -5.7215e-06 
2.4795e-06 -3.0247e-06 5.2261e-06 2.5585e-06 -3.4733e-06 4.5708e-06 2.4807e-06 -3.1854e-06 -5.2014e-06 
2.4166e-06 -4.1618e-06 3.9911e-06 2.6259e-06 -4.139e-06 -3.2979e-06 2.6237e-06 -3.74e-06 -4.0583e-06 
2.6179e-06 -4.572e-06 3.1831e-06 2.4429e-06 -4.7996e-06 -2.1544e-06 2.6305e-06 -5.4e-06 2.1895e-06 
2.6437e-06 -5.8972e-06 1.5835e-06 2.5727e-06 -5.6341e-06 -4.8706e-07 2.5766e-06 -5.2328e-06 -1.2479e-06 
1.81e-06 6.6531e-06 9.7976e-07 1.8984e-06 6.2365e-06 2.4201e-07 1.9016e-06 5.9967e-06 2.5627e-06 
1.9194e-06 5.6552e-06 -8.5062e-07 1.9211e-06 5.1466e-06 -1.8169e-06 1.8463e-06 4.3906e-06 4.6448e-06 
1.9115e-06 4.5004e-06 -3.0521e-06 1.9189e-06 4.0983e-06 -3.8124e-06 1.8435e-06 3.7222e-06 5.4351e-06 
1.8293e-06 3.7098e-06 -4.6067e-06 1.7606e-06 2.6623e-06 5.7215e-06 1.9208e-06 2.9933e-06 -5.7215e-06 
1.3237e-06 1.9286e-06 5.7215e-06 1.8869e-06 2.0688e-06 -5.7215e-06 1.7016e-06 1.2376e-06 5.7215e-06 
1.6755e-06 1.3198e-06 -5.7215e-06 1.9145e-06 5.8943e-07 -5.7215e-06 1.9104e-06 1.0196e-08 5.7215e-06 
1.3506e-06 -1.482e-07 -5.7215e-06 1.7962e-06 -7.6962e-07 5.7215e-06 1.7523e-06 -1.5417e-06 5.7215e-06 
1.6998e-06 -2.062e-06 -5.7215e-06 1.7025e-06 -2.2965e-06 5.7215e-06 1.9077e-06 -3.4085e-06 5.6999e-06 
1.8772e-06 -2.9982e-06 -5.7215e-06 1.7784e-06 -3.9843e-06 5.2323e-06 1.6577e-06 -4.346e-06 -3.5025e-06 
1.7172e-06 -3.755e-06 -4.5899e-06 1.8102e-06 -4.4954e-06 4.58e-06 1.5984e-06 -5.1786e-06 -1.9556e-06 
1.8502e-06 -4.6752e-06 -2.7575e-06 1.7289e-06 -5.272e-06 3.7987e-06 1.8721e-06 -5.6307e-06 3.1452e-06 
1.6862e-06 -5.9036e-06 -5.2237e-07 1.7626e-06 -5.4778e-06 -1.285e-06 1.7848e-06 -6.075e-06 2.3415e-06 
1.8505e-06 -6.6437e-06 9.8708e-07 1.8898e-06 -6.2329e-06 2.2987e-07 1.1598e-06 6.2438e-06 1.6342e-06 
1.0958e-06 6.7189e-06 6.6371e-07 1.156e-06 6.278e-06 -1.3774e-07 4.7048e-07 6.2318e-06 -6.4928e-07 
1.1771e-06 5.7953e-06 2.4978e-06 1.0189e-06 5.6772e-06 -1.3653e-06 1.0876e-06 4.8507e-06 4.2393e-06 
1.1413e-06 5.2336e-06 3.5441e-06 1.112e-06 5.1481e-06 -2.3142e-06 1.0879e-06 4.444e-06 5.0131e-06 
1.1584e-06 4.1663e-06 -4.153e-06 4.3109e-07 3.9709e-06 -4.9742e-06 1.0645e-06 3.5915e-06 5.7215e-06 
1.1568e-06 3.7544e-06 -4.9374e-06 7.4207e-07 2.6043e-06 5.7215e-06 1.0881e-06 2.6979e-06 -5.7215e-06 
1.1293e-06 1.9295e-06 -5.7215e-06 9.566e-07 7.1287e-07 5.7215e-06 1.0213e-06 7.7081e-07 -5.7215e-06 
6.3515e-07 1.1552e-08 5.7215e-06 8.7803e-07 -1.1067e-06 5.7215e-06 1.094e-06 -1.1279e-06 -5.7215e-06 
9.1325e-07 -2.0605e-06 -5.7215e-06 6.2432e-07 -2.2545e-06 5.7215e-06 1.0792e-06 -3.4797e-06 5.7215e-06 
1.1049e-06 -2.9974e-06 -5.7215e-06 1.0408e-06 -4.265e-06 5.3244e-06 1.0452e-06 -4.2994e-06 -3.9698e-06 
9.9731e-07 -3.7605e-06 -5.0243e-06 1.0968e-06 -4.7511e-06 4.4345e-06 1.0898e-06 -4.7814e-06 -3.0253e-06 
1.046e-06 -5.3694e-06 3.2269e-06 9.6991e-07 -5.6148e-06 -1.5143e-06 1.1323e-06 -6.1609e-06 1.7749e-06 
1.1095e-06 -6.6574e-06 5.5509e-07 1.1262e-06 -6.2949e-06 -1.2411e-07 3.63e-07 6.3392e-06 9.6028e-07 
4.1497e-07 6.6101e-06 3.5843e-08 3.562e-07 5.953e-06 1.6905e-06 3.1229e-07 5.9296e-06 -1.322e-06 
4.0988e-07 5.4604e-06 -2.1541e-06 3.2775e-07 4.8241e-06 3.8203e-06 2.9695e-07 5.2066e-06 3.0738e-06 
[...]
CELL_DATA 13
FIELD FieldData 8
cell_id 1 13 int
0 1 2 3 4 5 6 7 8 
9 10 11 12 
METADATA
INFORMATION 0

cell_type_id 1 13 int
2 0 0 0 0 0 0 0 0 
0 0 0 0 
METADATA
INFORMATION 0

cell_area 1 13 float
5.304e-10 7.537e-10 7.539e-10 7.559e-10 7.637e-10 7.583e-10 7.584e-10 7.525e-10 7.65e-10 
7.602e-10 7.58e-10 7.597e-10 7.59e-10 
METADATA
INFORMATION 0

cell_volume 1 13 float
1.03e-15 1.256e-15 1.256e-15 1.256e-15 1.259e-15 1.257e-15 1.257e-15 1.255e-15 1.258e-15 
1.262e-15 1.261e-15 1.258e-15 1.256e-15 
METADATA
INFORMATION 0

cell_pressure 1 13 float
-0 -0 -0 -0 -0 -0 -0 -0 -0 
-0 -0 -0 -0 
METADATA
INFORMATION 0

cell_growth_rate 1 13 float
0 2.127e-11 1.872e-11 1.878e-11 1.779e-11 2.094e-11 2.095e-11 2.145e-11 1.697e-11 
2.125e-11 2.421e-11 2.279e-11 2.013e-11 
METADATA
INFORMATION 0

cell_division_vol 1 13 float
0 8.435e-15 1.078e-14 1.083e-14 8.281e-15 1.04e-14 8.704e-15 1.118e-14 1.071e-14 
9.752e-15 1.071e-14 9.835e-15 1.08e-14 
METADATA
INFORMATION 0

cell_is_static 1 13 int
0 0 0 0 0 0 0 0 0 
0 0 0 0 
METADATA
INFORMATION 0

