# vtk DataFile Version 4.2
vtk output
ASCII
DATASET UNSTRUCTURED_GRID
POINTS 40 float
4.37083e-06 0 5.7215e-06 1.35066e-06 4.15692e-06 5.7215e-06 -3.53609e-06 2.56912e-06 5.7215e-06 
-3.53609e-06 -2.56912e-06 5.7215e-06 1.35066e-06 -4.15692e-06 5.7215e-06 7.0722e-06 0 1.35066e-06 
2.18543e-06 6.72606e-06 1.35066e-06 -5.7215e-06 4.15692e-06 1.35066e-06 -5.7215e-06 -4.15692e-06 1.35066e-06 
2.18543e-06 -6.72606e-06 1.35066e-06 5.7215e-06 4.15692e-06 -1.35066e-06 -2.18543e-06 6.72606e-06 -1.35066e-06 
-7.0722e-06 0 -1.35066e-06 -2.18543e-06 -6.72606e-06 -1.35066e-06 5.7215e-06 -4.15692e-06 -1.35066e-06 
3.53609e-06 2.56912e-06 -5.7215e-06 -1.35066e-06 4.15692e-06 -5.7215e-06 -4.37083e-06 0 -5.7215e-06 
-1.35066e-06 -4.15692e-06 -5.7215e-06 3.53609e-06 -2.56912e-06 -5.7215e-06 1.0927e-05 0 1.43038e-05 
3.37666e-06 1.03923e-05 1.43038e-05 -8.84024e-06 6.42276e-06 1.43038e-05 -8.84024e-06 -6.42276e-06 1.43038e-05 
3.37666e-06 -1.03923e-05 1.43038e-05 1.76805e-05 0 3.37666e-06 5.46355e-06 1.68151e-05 3.37666e-06 
-1.43038e-05 1.03923e-05 3.37666e-06 -1.43038e-05 -1.03923e-05 3.37666e-06 5.46355e-06 -1.68151e-05 3.37666e-06 
1.43038e-05 1.03923e-05 -3.37666e-06 -5.46355e-06 1.68151e-05 -3.37666e-06 -1.76805e-05 0 -3.37666e-06 
-5.46355e-06 -1.68151e-05 -3.37666e-06 1.43038e-05 -1.03923e-05 -3.37666e-06 8.84024e-06 6.42276e-06 -1.43038e-05 
-3.37666e-06 1.03923e-05 -1.43038e-05 -1.0927e-05 0 -1.43038e-05 -3.37666e-06 -1.03923e-05 -1.43038e-05 
8.84024e-06 -6.42276e-06 -1.43038e-05 
METADATA
INFORMATION 2
NAME L2_NORM_RANGE LOCATION vtkDataArray
DATA 2 7.19998e-06 1.80001e-05 
NAME L2_NORM_FINITE_RANGE LOCATION vtkDataArray
DATA 2 7.19998e-06 1.80001e-05 

CELLS 13 542
73 12 5 0 1 2 3 4 5 0 5 10 6 1 5 1 6 11 7 2 5 2 7 12 8 3 5 3 8 13 9 4 5 4 9 14 5 0 5 15 10 5 14 19 5 16 11 6 10 15 5 17 12 7 11 16 5 18 13 8 12 17 5 19 14 9 13 18 5 19 18 17 16 15 
38 7 5 0 1 2 3 4 5 20 21 22 23 24 4 4 0 20 24 4 0 1 21 20 4 1 2 22 21 4 2 3 23 22 4 3 4 24 23 
38 7 5 0 5 10 6 1 5 20 25 30 26 21 4 1 0 20 21 4 0 5 25 20 4 5 10 30 25 4 10 6 26 30 4 6 1 21 26 
38 7 5 1 6 11 7 2 5 21 26 31 27 22 4 2 1 21 22 4 1 6 26 21 4 6 11 31 26 4 11 7 27 31 4 7 2 22 27 
38 7 5 2 7 12 8 3 5 22 27 32 28 23 4 3 2 22 23 4 2 7 27 22 4 7 12 32 27 4 12 8 28 32 4 8 3 23 28 
38 7 5 3 8 13 9 4 5 23 28 33 29 24 4 4 3 23 24 4 3 8 28 23 4 8 13 33 28 4 13 9 29 33 4 9 4 24 29 
38 7 5 4 9 14 5 0 5 24 29 34 25 20 4 0 4 24 20 4 4 9 29 24 4 9 14 34 29 4 14 5 25 34 4 5 0 20 25 
38 7 5 15 10 5 14 19 5 35 30 25 34 39 4 19 15 35 39 4 15 10 30 35 4 10 5 25 30 4 5 14 34 25 4 14 19 39 34 
38 7 5 16 11 6 10 15 5 36 31 26 30 35 4 15 16 36 35 4 16 11 31 36 4 11 6 26 31 4 6 10 30 26 4 10 15 35 30 
38 7 5 17 12 7 11 16 5 37 32 27 31 36 4 16 17 37 36 4 17 12 32 37 4 12 7 27 32 4 7 11 31 27 4 11 16 36 31 
38 7 5 18 13 8 12 17 5 38 33 28 32 37 4 17 18 38 37 4 18 13 33 38 4 13 8 28 33 4 8 12 32 28 4 12 17 37 32 
38 7 5 19 14 9 13 18 5 39 34 29 33 38 4 18 19 39 38 4 19 14 34 39 4 14 9 29 34 4 9 13 33 29 4 13 18 38 33 
38 7 5 19 18 17 16 15 5 39 38 37 36 35 4 15 19 39 35 4 19 18 38 39 4 18 17 37 38 4 17 16 36 37 4 16 15 35 36 
CELL_TYPES 13
42
42
42
42
42
42
42
42
42
42
42
42
42

CELL_DATA 13
FIELD FieldData 1
cell_type_id 1 13 int
2 0 0 0 0 0 0 0 0 
0 0 0 0 
METADATA
INFORMATION 0

