# vtk DataFile Version 4.2
vtk output
ASCII
DATASET UNSTRUCTURED_GRID
POINTS 3467 float
2.2997e-05 8.3062e-06 2.2115e-05 2.6253e-05 1.6216e-05 7.6038e-06 2.2929e-05 1.621e-05 1.4671e-07 
2.4069e-05 9.3826e-06 2.0932e-05 2.3739e-05 5.8281e-06 2.0226e-05 2.0175e-05 1.3561e-05 2.3608e-05 
2.3988e-05 1.9698e-05 4.7704e-06 9.1833e-06 7.33e-06 1.515e-06 2.4573e-05 2.0364e-05 1.188e-05 
2.2623e-05 1.8009e-06 1.8827e-05 2.5596e-05 1.7896e-05 7.4454e-06 7.2229e-06 4.08e-06 7.299e-06 
2.4808e-05 1.353e-05 1.5887e-06 1.3992e-05 2.0044e-05 2.5451e-06 1.0165e-05 1.6339e-06 1.5861e-05 
1.6505e-05 7.7124e-06 -2.4336e-06 2.2708e-05 1.9435e-05 1.8958e-05 2.6129e-05 1.7106e-05 1.0197e-05 
1.5161e-05 2.6561e-06 2.2819e-07 2.3622e-05 1.339e-05 -2.7762e-07 2.5155e-05 1.5262e-05 1.8089e-05 
2.6135e-05 8.0729e-06 1.6549e-05 2.5622e-05 1.7617e-05 1.3906e-05 1.6263e-05 1.8084e-06 2.0346e-05 
2.5662e-05 1.3908e-05 3.4887e-06 1.6435e-05 1.7873e-05 2.1441e-05 2.712e-05 7.8344e-06 9.2733e-06 
2.4747e-05 1.979e-05 8.0298e-06 2.6371e-05 1.3435e-05 5.2444e-06 2.6377e-05 1.6077e-05 1.2762e-05 
2.5831e-05 1.6643e-05 6.3333e-06 2.5545e-05 1.5549e-05 4.2318e-06 2.0317e-05 -2.9163e-06 1.1123e-05 
2.7332e-05 1.095e-05 9.9979e-06 2.7037e-05 7.2403e-06 1.1146e-05 2.5586e-05 5.9013e-06 1.6757e-05 
2.6592e-05 1.5649e-05 8.8936e-06 1.8092e-05 1.5262e-05 2.3072e-05 2.6119e-05 8.7593e-06 3.9583e-06 
2.3801e-05 1.4988e-05 6.392e-07 2.473e-05 1.3186e-05 1.9777e-05 2.5888e-05 1.4168e-05 1.6878e-05 
2.6899e-05 1.4171e-05 1.2527e-05 9.4256e-06 8.0695e-06 1.0567e-06 2.5946e-05 3.759e-06 1.2648e-05 
2.6757e-05 1.4562e-05 7.9382e-06 2.6399e-05 1.0506e-05 4.5037e-06 2.3597e-05 1.6122e-05 2.0783e-05 
2.6151e-05 4.3724e-06 8.0446e-06 2.1517e-05 -2.8349e-06 1.0514e-05 2.4297e-05 1.0875e-05 2.0126e-07 
2.0303e-05 2.2854e-05 1.5363e-05 2.7145e-05 1.2275e-05 1.2621e-05 7.391e-06 1.3721e-05 3.8743e-06 
8.7545e-06 6.0093e-06 1.8382e-05 9.5639e-06 1.4416e-05 1.4876e-06 2.6226e-05 6.0582e-06 5.8823e-06 
2.626e-05 9.7619e-06 1.6667e-05 2.5563e-05 4.5164e-06 1.5541e-05 9.0429e-06 1.9719e-05 9.3543e-06 
2.4425e-05 1.2031e-05 2.0474e-05 2.5064e-05 1.973e-05 1.0061e-05 2.4347e-05 -1.4749e-07 1.0302e-05 
2.7216e-05 1.0851e-05 8.2191e-06 2.6955e-05 1.0704e-05 6.5702e-06 2.6236e-05 1.5224e-05 6.1064e-06 
1.8271e-05 -1.7423e-06 5.0266e-06 2.3763e-05 1.9005e-05 1.7438e-05 2.7295e-05 9.0587e-06 1.0586e-05 
2.7253e-05 9.2068e-06 9.3464e-06 2.7039e-05 8.9452e-06 7.4009e-06 1.3474e-05 3.5495e-06 2.0643e-05 
2.0391e-05 7.3948e-06 2.3521e-05 2.6555e-05 7.7203e-06 1.4878e-05 2.2438e-05 1.7315e-05 2.4004e-07 
2.4488e-05 1.3101e-06 6.6679e-06 2.7144e-05 1.2885e-05 8.9266e-06 1.1594e-05 8.7109e-07 4.4479e-06 
2.6756e-05 7.0268e-06 7.3445e-06 2.6699e-05 5.963e-06 8.7321e-06 2.6685e-05 1.5557e-05 1.0954e-05 
2.4682e-05 1.8851e-06 1.4671e-05 1.9089e-05 6.9625e-06 -2.5127e-06 2.668e-05 5.6084e-06 1.0432e-05 
2.3436e-05 9.2108e-08 5.8415e-06 2.255e-05 3.0966e-06 2.0068e-05 2.6383e-05 5.5465e-06 7.2577e-06 
2.0142e-05 -1.3838e-07 2.35e-06 2.5756e-05 8.9182e-06 1.7766e-05 2.3067e-05 2.011e-05 3.3757e-06 
1.7739e-05 9.0816e-07 1.9776e-05 2.5844e-05 4.4159e-06 6.3601e-06 2.5456e-05 4.8133e-06 4.5736e-06 
2.6911e-05 1.4504e-05 9.7113e-06 2.3555e-05 2.1753e-05 1.1053e-05 5.6397e-06 1.2409e-05 7.2929e-06 
1.6066e-05 1.8739e-05 3.9877e-07 2.4844e-05 4.2256e-06 1.7139e-05 2.3196e-05 -1.4004e-06 1.2081e-05 
7.1481e-06 1.694e-05 7.838e-06 1.2298e-05 4.8673e-06 2.0805e-05 1.2528e-05 1.5968e-05 2.1015e-05 
2.29e-05 -1.7363e-06 1.0109e-05 2.4597e-05 5.3725e-06 1.8549e-05 1.0638e-05 1.9877e-05 5.4845e-06 
2.2758e-05 2.1319e-05 1.5508e-05 2.3873e-05 1.7269e-05 2.1009e-06 6.2024e-06 5.285e-06 9.5105e-06 
1.9027e-05 2.3756e-05 9.1723e-06 1.8037e-05 -2.3146e-06 1.4435e-05 2.5473e-05 2.9696e-06 7.2622e-06 
2.6702e-05 6.643e-06 1.3272e-05 2.6181e-05 6.0772e-06 1.5028e-05 2.5063e-05 1.8116e-05 5.6302e-06 
2.6123e-05 4.9077e-06 1.3941e-05 2.5867e-05 6.7319e-06 4.1857e-06 2.4906e-05 1.853e-05 1.4974e-05 
1.8006e-05 -2.2047e-06 6.2717e-06 2.3566e-05 -2.5013e-07 7.2636e-06 2.2617e-05 6.1052e-07 1.7515e-05 
1.368e-05 2.1534e-05 5.0823e-06 2.5145e-05 1.9239e-06 1.2975e-05 2.3246e-05 1.8894e-05 2.3842e-06 
2.2546e-05 -9.9202e-07 6.134e-06 1.4584e-05 2.0874e-05 3.3007e-06 2.5979e-05 1.2422e-05 1.7329e-05 
1.9602e-05 2.1607e-05 1.7919e-05 2.019e-05 2.0247e-05 1.9714e-05 1.912e-05 7.6385e-06 2.364e-05 
9.4845e-06 1.0903e-06 7.7383e-06 2.0479e-05 2.177e-05 1.7551e-05 1.5031e-05 2.0213e-05 2.2143e-06 
2.1433e-05 -2.6707e-06 8.6081e-06 2.0239e-05 1.8199e-06 2.0651e-05 2.0545e-05 1.5951e-05 -1.6183e-06 
2.1455e-05 6.0709e-06 2.3018e-05 2.6562e-05 1.4284e-05 6.7142e-06 1.9717e-05 1.9067e-05 2.9181e-07 
2.1352e-05 3.3497e-07 1.9877e-06 2.0498e-05 2.2015e-05 3.8784e-06 2.4708e-05 2.8285e-06 1.5986e-05 
2.0493e-05 -1.4846e-06 1.6478e-05 2.044e-05 1.8119e-05 -3.7554e-07 1.7101e-05 9.6083e-07 1.2247e-06 
1.7179e-05 1.5832e-05 -1.6387e-06 1.3651e-05 2.0999e-05 4.122e-06 2.2222e-05 7.1949e-06 2.2614e-05 
1.1126e-05 2.1453e-05 1.0076e-05 2.0881e-05 1.7207e-05 2.2178e-05 2.0272e-05 3.2727e-06 2.1742e-05 
2.3511e-05 4.4655e-06 1.9733e-05 2.0043e-05 1.6945e-05 -1.1571e-06 7.3457e-06 8.5176e-06 3.4387e-06 
1.3931e-05 2.6152e-06 7.8117e-07 1.5029e-05 1.3888e-05 2.291e-05 2.0417e-05 3.8654e-06 -1.1768e-06 
1.6852e-05 2.2192e-05 1.657e-05 1.8063e-05 2.9651e-06 2.1548e-05 1.9513e-05 -1.0631e-06 1.7314e-05 
1.9515e-05 -1.648e-06 1.6243e-05 2.1294e-05 2.3564e-05 1.2077e-05 1.8964e-05 1.3055e-06 6.9562e-07 
7.7239e-06 3.181e-06 7.5595e-06 1.6493e-05 1.8927e-05 2.0648e-05 6.9937e-06 5.2104e-06 6.2267e-06 
1.5779e-05 -2.0989e-06 7.0606e-06 1.3818e-05 9.6119e-06 -1.9305e-06 1.953e-05 2.2109e-05 1.7079e-05 
1.1744e-05 -9.4792e-07 1.0035e-05 1.4654e-05 1.6418e-05 2.1779e-05 2.1539e-05 1.8354e-05 -2.0732e-08 
1.9481e-05 2.2597e-05 1.6097e-05 2.0343e-05 2.3694e-05 9.1622e-06 2.5367e-05 1.1806e-05 2.1683e-06 
1.9992e-05 2.3462e-05 7.4845e-06 2.0141e-05 2.2824e-05 5.4773e-06 1.9756e-05 2.1384e-05 2.8062e-06 
9.204e-06 1.2807e-05 1.2762e-06 9.0148e-06 1.3622e-05 1.7209e-06 1.9419e-05 2.1087e-06 -1.4178e-08 
1.7897e-05 2.0527e-05 1.7865e-06 1.9129e-05 1.8025e-05 -5.2906e-07 1.688e-05 2.1013e-05 1.8504e-05 
1.9577e-05 1.5961e-05 -1.6918e-06 2.0195e-05 1.4769e-05 -2.153e-06 1.9111e-05 5.4457e-06 -2.0117e-06 
2.1916e-05 1.5933e-05 2.2704e-05 2.0397e-05 1.1108e-05 2.3904e-05 2.0091e-05 1.0102e-05 2.3924e-05 
2.1317e-05 2.9695e-06 2.1377e-05 7.6822e-06 2.9081e-06 8.5802e-06 1.6818e-05 2.267e-05 1.5501e-05 
2.0185e-05 4.6907e-06 2.2565e-05 1.7081e-05 2.0236e-05 1.5936e-06 1.1534e-05 1.9614e-05 1.7104e-05 
2.2642e-05 4.6783e-06 2.1076e-05 1.9138e-05 3.6733e-06 2.2047e-05 1.7798e-05 1.9606e-05 8.243e-07 
1.8592e-05 2.0361e-05 1.9583e-05 1.0346e-05 1.8449e-05 1.7275e-05 2.0136e-05 -2.6743e-06 7.9853e-06 
1.7384e-05 2.2524e-05 4.9846e-06 1.8622e-05 -8.1635e-07 1.7695e-05 1.8608e-05 -1.401e-06 1.671e-05 
1.8568e-05 3.0353e-06 -7.019e-07 2.3703e-05 9.6794e-07 1.5936e-05 2.01e-05 -2.8177e-06 1.2323e-05 
1.8513e-05 6.1972e-06 2.3209e-05 1.8019e-05 4.133e-06 2.2263e-05 2.0054e-05 -1.0718e-06 3.7309e-06 
1.3585e-05 1.6126e-05 -4.4245e-07 1.9188e-05 2.1098e-05 1.8683e-05 6.2893e-06 5.3641e-06 8.5404e-06 
1.9379e-05 2.2955e-05 1.5219e-05 1.9788e-05 2.3261e-05 1.4257e-05 2.0072e-05 2.3572e-05 1.2867e-05 
2.0113e-05 2.375e-05 1.1405e-05 1.9939e-05 2.3782e-05 1.0158e-05 9.6423e-06 2.103e-06 5.159e-06 
1.9326e-05 2.2155e-05 4.0161e-06 1.8468e-05 2.1433e-05 2.8751e-06 1.5071e-05 -1.038e-06 4.7764e-06 
1.9077e-05 1.8243e-05 2.1539e-05 1.3413e-05 1.9299e-05 2.0481e-06 1.8295e-05 1.9156e-06 1.7175e-07 
1.9147e-05 1.6662e-05 2.2512e-05 1.9041e-05 1.6805e-05 -1.2731e-06 1.1939e-05 1.8031e-05 1.8233e-06 
1.9047e-05 1.5196e-05 -2.0271e-06 2.0108e-05 7.6664e-06 -2.6495e-06 1.987e-05 1.3334e-05 -2.5951e-06 
1.9771e-05 1.2121e-05 2.3865e-05 2.0437e-05 1.2011e-05 -2.805e-06 1.9326e-05 1.0877e-05 2.3958e-05 
1.7248e-05 1.7155e-06 4.7035e-07 1.9746e-05 6.1169e-06 2.3187e-05 1.893e-05 4.9693e-06 2.273e-05 
1.5864e-05 1.3133e-05 -2.2831e-06 1.9412e-05 4.0912e-06 -1.3605e-06 1.7514e-05 2.0462e-05 1.9327e-05 
1.8095e-05 -9.8948e-08 1.8671e-05 1.8717e-05 -1.9925e-06 1.5471e-05 1.9115e-05 -2.4635e-06 1.4129e-05 
1.9231e-05 -2.751e-06 1.2868e-05 1.9282e-05 -2.9008e-06 1.1711e-05 1.9213e-05 -2.9501e-06 1.0468e-05 
1.0948e-05 1.9563e-05 4.5284e-06 1.6639e-05 1.0158e-06 1.9683e-05 2.0093e-05 -2.2348e-06 6.3134e-06 
1.9635e-05 -1.7387e-06 4.9906e-06 1.8954e-05 -1.3028e-06 4.0994e-06 1.8759e-05 -5.6783e-07 2.8816e-06 
1.8965e-05 4.4837e-07 1.58e-06 1.7931e-05 -2.8905e-06 1.0068e-05 1.8625e-05 2.1729e-05 1.7738e-05 
2.0218e-05 -2.8927e-06 9.615e-06 1.8616e-05 2.2339e-05 1.6642e-05 1.8612e-05 2.2795e-05 1.5631e-05 
1.8717e-05 2.3164e-05 1.4618e-05 1.891e-05 2.3484e-05 1.345e-05 1.9012e-05 2.3714e-05 1.2126e-05 
1.8993e-05 2.3811e-05 1.075e-05 9.4486e-06 3.2741e-06 3.9086e-06 1.8346e-05 2.3469e-05 7.5311e-06 
1.7951e-05 2.3048e-05 6.1608e-06 1.8683e-05 2.2705e-05 5.1612e-06 1.824e-05 2.2179e-05 4.1318e-06 
1.1341e-05 1.9329e-05 3.7548e-06 1.4166e-05 1.727e-05 2.108e-05 1.5409e-05 2.2067e-05 4.8912e-06 
1.3982e-05 2.2811e-05 1.2012e-05 2.581e-05 1.0426e-05 2.9819e-06 1.8509e-05 1.7377e-05 2.2084e-05 
1.8226e-05 1.6341e-05 2.2622e-05 1.8451e-05 1.5994e-05 -1.6757e-06 1.8988e-05 1.4224e-05 -2.3693e-06 
1.8822e-05 1.309e-05 2.3723e-05 1.8767e-05 1.325e-05 -2.6217e-06 1.9154e-05 1.226e-05 -2.8152e-06 
1.858e-05 1.18e-05 2.3891e-05 1.9526e-05 1.1205e-05 -2.9205e-06 1.823e-05 1.0656e-05 2.3927e-05 
1.913e-05 9.908e-06 -2.9519e-06 1.8957e-05 9.4223e-06 2.3914e-05 1.9112e-05 8.3643e-06 -2.804e-06 
1.3052e-05 4.3103e-06 2.0909e-05 1.6254e-05 3.7412e-07 1.8866e-05 1.8049e-05 1.0752e-06 9.6547e-07 
1.8469e-05 -2.9082e-06 1.1228e-05 1.8243e-05 4.3184e-06 -1.4462e-06 2.0114e-05 -2.1361e-06 1.51e-05 
1.8033e-05 1.8515e-06 2.0692e-05 1.5741e-05 1.2951e-05 2.3325e-05 1.6357e-05 2.0037e-05 1.9549e-05 
1.5322e-05 1.7366e-05 2.1461e-05 1.7001e-05 1.8903e-05 3.2841e-07 1.4058e-05 1.3789e-06 1.9087e-05 
[...]
CELL_DATA 2
FIELD FieldData 8
cell_id 1 2 int
0 1 
METADATA
INFORMATION 0

cell_type_id 1 2 int
0 1
METADATA
INFORMATION 0

cell_area 1 2 float
2.03e-09 2.491e-09 
METADATA
INFORMATION 0

cell_volume 1 2 float
8.376e-15 8.76e-15 
METADATA
INFORMATION 0

cell_pressure 1 2 float
246.6 134.8 
METADATA
INFORMATION 0

cell_growth_rate 1 2 float
0 0 
METADATA
INFORMATION 0

cell_division_vol 1 2 float
1e+20 1e+20 
METADATA
INFORMATION 0

cell_is_static 1 2 int
0 0 
METADATA
INFORMATION 0

