# vtk DataFile Version 4.2
vtk output
ASCII
DATASET UNSTRUCTURED_GRID
POINTS 3854 float
2.2755e-05 2.2415e-05 7.6016e-06 7.5273e-06 1.6041e-05 1.9041e-05 3.6051e-06 9.028e-06 1.4502e-05 
7.8271e-06 1.2197e-06 5.4462e-06 1.4529e-05 1.8261e-05 2.1476e-05 1.1389e-05 1.903e-05 1.9756e-05 
1.9523e-05 2.6562e-06 -4.4397e-07 1.8339e-05 8.7042e-07 8.0138e-07 7.4329e-06 1.8778e-05 4.5144e-06 
1.0366e-05 6.4616e-07 3.2174e-06 6.8358e-06 7.0063e-06 1.9381e-05 2.1649e-05 2.3125e-05 1.2147e-05 
7.9542e-06 3.633e-06 1.853e-05 5.6247e-06 1.5118e-05 1.7175e-05 1.9693e-05 2.1852e-05 1.7391e-05 
2.049e-05 1.9789e-06 2.0451e-05 1.8517e-05 1.672e-05 2.2423e-05 3.8874e-06 1.412e-05 6.8562e-06 
7.2636e-06 4.2925e-06 1.8302e-05 4.6288e-06 1.1829e-05 1.6948e-05 8.966e-06 4.6376e-06 2.0176e-05 
2.0762e-05 2.317e-05 1.3571e-05 2.1462e-05 3.2427e-06 2.1007e-05 1.9522e-05 2.0813e-05 1.8899e-05 
4.1491e-06 5.0392e-06 8.709e-06 2.1018e-05 2.0285e-05 1.8819e-05 1.4281e-05 2.0874e-05 1.8068e-06 
1.7172e-05 2.046e-05 1.976e-05 6.7333e-06 1.663e-06 1.3943e-05 2.3568e-05 3.5644e-06 1.2557e-05 
5.2294e-06 6.8793e-06 3.7028e-06 2.2358e-05 1.4116e-05 -1.5034e-06 6.7156e-06 5.6376e-06 2.2844e-06 
1.8475e-05 1.73e-05 -1.3099e-06 1.5331e-05 2.0771e-05 1.9346e-05 1.4416e-05 2.0981e-05 1.8915e-05 
6.3533e-06 1.4761e-05 2.4196e-06 2.3589e-05 4.5163e-06 1.3863e-05 1.4489e-05 1.7666e-05 -1.0391e-06 
8.5174e-06 1.9633e-05 4.2261e-06 9.3131e-06 1.896e-05 2.5189e-06 5.5871e-06 6.8254e-06 1.7706e-05 
6.8609e-06 3.8857e-06 1.743e-05 2.1192e-05 1.8342e-05 1.4927e-07 6.8691e-06 1.8917e-05 5.7661e-06 
2.1392e-05 5.796e-06 -1.5553e-06 2.1212e-05 -2.3611e-06 8.8882e-06 2.171e-05 2.1045e-05 3.3057e-06 
7.5727e-06 2.0049e-05 1.4245e-05 5.0629e-06 1.6459e-05 6.0868e-06 7.1727e-06 1.7252e-05 1.7688e-05 
1.8758e-05 1.9609e-05 4.2901e-07 2.2721e-05 8.7029e-06 -1.7376e-06 1.7909e-05 -1.1662e-07 1.8387e-06 
2.0055e-05 6.2259e-06 -2.1442e-06 7.6623e-06 3.1118e-06 3.1404e-06 2.1581e-05 1.9503e-05 1.9328e-05 
1.8975e-05 -7.0796e-07 1.8001e-05 1.0163e-05 -4.2154e-07 5.2315e-06 3.6402e-06 7.1768e-06 1.3396e-05 
2.1923e-05 1.1809e-06 1.8978e-05 6.1984e-06 1.3491e-05 1.8811e-05 1.9446e-05 2.1326e-07 1.9048e-05 
1.8875e-05 3.7257e-06 -1.2866e-06 1.8342e-05 3.4201e-06 2.2031e-05 2.1188e-05 4.7045e-07 2.2382e-06 
1.8596e-05 -1.7206e-06 4.5004e-06 1.2171e-05 2.0714e-05 2.469e-06 1.5711e-05 7.4414e-06 2.3746e-05 
1.791e-05 -2.209e-06 5.4319e-06 2.3406e-05 6.7283e-06 -9.1012e-07 2.1233e-05 4.7555e-07 1.8563e-05 
2.3668e-05 2.0771e-05 1.2397e-05 2.2446e-05 9.2274e-07 2.4846e-06 1.9542e-05 2.3103e-05 5.9343e-06 
2.2961e-05 -1.0583e-06 1.4263e-05 2.0855e-05 2.2642e-05 1.5079e-05 2.1679e-05 2.0734e-05 1.7864e-05 
3.851e-06 8.0926e-06 1.4832e-05 1.0204e-05 6.1685e-06 2.1732e-05 2.205e-05 -6.516e-07 4.5075e-06 
5.9792e-06 1.1929e-05 1.9011e-06 2.2708e-05 -9.6393e-07 5.9046e-06 2.1598e-05 2.0111e-06 1.9979e-05 
1.8286e-05 1.7247e-06 2.0816e-05 2.1098e-05 2.0535e-05 2.2494e-06 2.2476e-05 -8.7732e-07 1.5448e-05 
2.1744e-05 1.6843e-05 -6.078e-07 2.2403e-05 2.293e-05 1.064e-05 2.2335e-05 1.0126e-05 -2.0412e-06 
1.3011e-05 -2.6322e-06 8.773e-06 2.1784e-05 -1.3738e-08 3.268e-06 1.1851e-05 8.5749e-06 2.3118e-05 
9.4594e-06 2.369e-06 1.884e-05 2.253e-05 1.429e-05 2.2124e-05 2.0296e-05 -1.0317e-06 1.6905e-05 
2.1866e-05 2.2494e-05 1.4373e-05 2.1584e-05 1.2944e-05 2.2902e-05 2.007e-05 1.9259e-05 4.8238e-07 
1.9838e-05 1.6551e-06 4.3084e-07 1.2664e-05 1.9681e-05 1.9762e-05 2.0467e-05 9.5346e-07 1.3572e-06 
1.8512e-05 1.8976e-05 2.0959e-05 2.2037e-05 2.2767e-05 1.3184e-05 1.675e-05 6.5782e-07 1.9971e-05 
2.2276e-05 2.2934e-05 9.2903e-06 2.2078e-05 2.287e-05 8.2051e-06 2.1805e-05 2.2686e-05 6.9473e-06 
1.4017e-05 6.8555e-07 1.2213e-06 1.314e-05 1.9308e-05 2.0279e-05 2.2758e-05 1.2543e-05 -1.6743e-06 
1.901e-05 6.837e-08 1.847e-06 6.2791e-06 3.3351e-06 1.5897e-05 2.1418e-05 1.4955e-05 2.2353e-05 
2.2472e-05 -1.9316e-06 1.0987e-05 2.1736e-05 1.283e-05 -2.0814e-06 2.1987e-05 1.1475e-05 -2.1576e-06 
2.1844e-05 1.0399e-05 2.3064e-05 2.2432e-05 8.8021e-06 2.2719e-05 2.118e-05 8.183e-06 -2.2868e-06 
2.2383e-05 7.1495e-06 2.2408e-05 2.1917e-05 7.4005e-06 -1.8515e-06 2.1822e-05 5.6819e-06 2.2149e-05 
2.1171e-05 4.1551e-06 -8.6344e-07 2.0448e-05 2.6848e-06 2.1004e-05 2.083e-05 2.7164e-06 -6.6305e-08 
1.476e-05 1.9434e-05 2.2618e-07 2.0567e-05 -1.8499e-07 1.8096e-05 1.5166e-05 1.0777e-06 5.6202e-07 
2.1133e-05 -1.3144e-06 1.5769e-05 2.1647e-05 -1.4796e-06 1.4847e-05 2.04e-05 2.1314e-05 2.9121e-06 
2.1886e-05 -2.0269e-06 1.2407e-05 2.1843e-05 -2.1864e-06 9.9582e-06 2.2155e-05 -1.8446e-06 8.0083e-06 
2.1851e-05 -1.6579e-06 6.7366e-06 2.1603e-05 -1.3501e-06 5.5991e-06 2.0199e-05 1.1621e-07 2.2005e-06 
8.9828e-06 5.8753e-06 2.9747e-08 2.1566e-05 9.0185e-06 -2.2855e-06 1.7517e-05 7.4422e-06 -2.9008e-06 
1.6742e-05 2.1137e-05 1.8054e-06 1.759e-05 1.8217e-05 -8.4435e-07 2.1135e-05 2.34e-05 1.1203e-05 
2.1138e-05 2.3425e-05 1.0073e-05 2.1108e-05 2.3333e-05 8.7896e-06 2.1008e-05 2.3153e-05 7.582e-06 
2.0895e-05 2.2868e-05 6.3976e-06 2.0748e-05 2.2576e-05 5.4751e-06 3.4483e-06 6.8793e-06 9.0938e-06 
2.0098e-05 2.1845e-05 3.6136e-06 1.9607e-05 1.863e-05 -1.8723e-07 1.1879e-05 1.524e-06 1.2148e-06 
1.9537e-05 6.993e-07 1.2875e-06 1.7283e-05 1.9597e-05 2.0587e-05 2.0363e-05 1.7548e-05 -7.1135e-07 
2.0575e-05 1.643e-05 -1.2712e-06 2.0669e-05 1.5366e-05 2.2476e-05 2.1033e-05 1.4184e-05 2.2775e-05 
1.6615e-05 3.4726e-06 -1.343e-06 2.113e-05 1.4004e-05 -2.0338e-06 2.0547e-05 9.1791e-07 1.9432e-05 
2.0644e-05 1.2893e-05 -2.4542e-06 2.1493e-05 1.1791e-05 2.3102e-05 2.105e-05 1.1749e-05 -2.4875e-06 
2.0939e-05 1.1182e-05 2.3355e-05 2.1236e-05 1.0444e-05 -2.4859e-06 2.1047e-05 9.2973e-06 2.3317e-05 
2.1138e-05 7.8333e-06 2.3076e-05 2.0832e-05 7.1882e-06 -2.1983e-06 2.0915e-05 6.3204e-06 2.2748e-05 
8.9421e-06 3.1332e-06 1.7805e-06 2.0484e-05 5.1526e-06 -1.5915e-06 1.8386e-05 2.0526e-05 1.9519e-05 
2.0035e-05 4.2903e-06 -1.3079e-06 2.0116e-05 3.4694e-06 -8.1387e-07 9.5559e-06 2.2797e-06 2.0307e-06 
1.8167e-05 1.9873e-05 2.0225e-05 1.7273e-05 1.4177e-06 1.7838e-07 2.0934e-05 -1.8921e-06 1.4478e-05 
2.118e-05 -2.1266e-06 1.3293e-05 2.11e-05 -2.3953e-06 1.1964e-05 2.1175e-05 -2.4564e-06 1.0508e-05 
9.7829e-06 -1.2146e-06 8.4114e-06 2.0995e-05 -2.1561e-06 7.3682e-06 2.0822e-05 -1.8153e-06 6.0369e-06 
2.0773e-05 -1.286e-06 4.7339e-06 1.2327e-05 1.2058e-06 1.9548e-05 2.0778e-05 -5.6083e-07 3.4247e-06 
1.7846e-05 2.0473e-05 1.1166e-06 7.149e-06 3.9548e-06 2.9772e-06 1.8464e-05 9.9163e-06 -3.1429e-06 
1.9726e-05 2.2801e-05 1.5511e-05 2.0133e-05 2.2999e-05 1.4701e-05 4.3449e-06 1.0109e-05 1.6533e-05 
1.967e-05 2.3567e-05 1.3077e-05 2.0423e-05 2.353e-05 1.2176e-05 2.0005e-05 2.3754e-05 1.094e-05 
2.0243e-05 2.3675e-05 9.6083e-06 2.0236e-05 2.3537e-05 8.3489e-06 2.0079e-05 2.3323e-05 7.1182e-06 
2.3499e-05 6.8321e-06 6.9488e-06 2.0006e-05 2.2574e-05 4.9467e-06 1.9605e-05 2.2275e-05 4.1155e-06 
1.9451e-05 2.0179e-05 1.1602e-06 1.5227e-05 8.9399e-07 2.0102e-05 1.961e-05 1.6911e-05 -1.3008e-06 
1.9831e-05 1.552e-05 2.2676e-05 2.0041e-05 1.4582e-05 2.2969e-05 2.0224e-05 1.4739e-05 -2.0889e-06 
2.0252e-05 1.3447e-05 2.3235e-05 2.0144e-05 1.3795e-05 -2.3919e-06 2.0362e-05 1.2173e-05 2.3449e-05 
1.9894e-05 1.2063e-05 -2.7885e-06 2.0207e-05 1.0942e-05 -2.7939e-06 2.0378e-05 1.063e-05 2.3572e-05 
2.0406e-05 9.7072e-06 -2.7248e-06 1.9857e-05 9.5223e-06 2.3677e-05 2.0235e-05 8.5615e-06 2.3475e-05 
2.0406e-05 8.4902e-06 -2.595e-06 2.0061e-05 7.3815e-06 2.3306e-05 2.0074e-05 5.9638e-06 2.2881e-05 
2.1669e-05 1.6004e-05 2.1778e-05 1.9661e-05 4.8683e-06 2.253e-05 1.9598e-05 3.7739e-06 2.1986e-05 
7.4702e-06 4.6127e-06 2.077e-06 2.1664e-05 1.7222e-06 1.1282e-06 1.5822e-05 1.9857e-05 2.0359e-05 
1.109e-05 2.1937e-06 1.0345e-06 1.922e-05 1.7436e-05 2.1871e-05 2.3431e-05 7.9137e-06 6.9767e-07 
1.9562e-05 -1.3369e-06 1.6704e-05 2.0117e-05 -1.721e-06 1.5608e-05 2.0054e-05 -2.1492e-06 1.4484e-05 
2.0324e-05 -2.4005e-06 1.3319e-05 2.0005e-05 -2.6801e-06 1.2191e-05 2.0124e-05 -2.7541e-06 1.1133e-05 
2.0288e-05 -2.7166e-06 9.877e-06 2.0111e-05 -2.6643e-06 8.7458e-06 2.0279e-05 -2.4416e-06 7.6619e-06 
2.0095e-05 -2.1523e-06 6.3881e-06 1.9848e-05 -1.7585e-06 5.1598e-06 1.9614e-05 -1.2319e-06 3.959e-06 
1.9546e-05 -5.9692e-07 2.9069e-06 8.5942e-06 1.8249e-05 1.836e-05 7.8956e-06 1.7487e-05 1.8337e-05 
1.9208e-05 2.3351e-05 1.4362e-05 1.928e-05 2.3816e-05 1.2083e-05 1.9149e-05 2.3942e-05 1.0136e-05 
1.9383e-05 2.3822e-05 8.9888e-06 1.9371e-05 2.3665e-05 7.9197e-06 1.9182e-05 2.3472e-05 6.9215e-06 
1.9106e-05 2.2742e-05 4.8429e-06 4.6769e-06 1.6894e-05 1.2543e-05 1.8074e-05 2.4218e-06 2.1393e-05 
2.0914e-05 4.6567e-06 2.2068e-05 1.8783e-05 2.1589e-05 1.8088e-05 2.1052e-05 2.1934e-05 4.3064e-06 
1.8862e-05 1.5819e-05 2.2786e-05 1.8936e-05 1.6365e-05 -1.7235e-06 1.9207e-05 1.5007e-05 2.3031e-05 
3.9709e-06 1.5598e-05 1.183e-05 1.9286e-05 1.4108e-05 2.3309e-05 1.9257e-05 1.45e-05 -2.4058e-06 
1.9358e-05 1.2989e-05 2.3565e-05 1.9376e-05 1.3213e-05 -2.719e-06 1.9382e-05 1.1759e-05 2.3747e-05 
1.9064e-05 1.1156e-05 -3.0397e-06 1.925e-05 1.0479e-05 2.384e-05 1.9501e-05 1.0148e-05 -2.9624e-06 
1.9418e-05 8.9875e-06 -2.9048e-06 1.9372e-05 8.5145e-06 2.3678e-05 1.9555e-05 7.6153e-06 -2.6533e-06 
1.9e-05 7.6707e-06 2.3596e-05 1.9123e-05 6.6972e-06 2.3334e-05 1.9102e-05 6.6041e-06 -2.4708e-06 
1.9029e-05 5.6728e-06 -2.1678e-06 1.8806e-05 4.3772e-06 2.2475e-05 1.861e-05 2.8743e-06 -7.8242e-07 
1.4665e-05 1.9163e-05 2.081e-05 1.8164e-05 4.8464e-06 -1.9683e-06 1.8602e-05 -1.4465e-06 1.6864e-05 
1.9091e-05 -1.8589e-06 1.5839e-05 1.9243e-05 -2.2251e-06 1.4831e-05 1.936e-05 -2.5184e-06 1.3781e-05 
1.9383e-05 -2.7282e-06 1.2785e-05 1.9289e-05 -2.9599e-06 1.0449e-05 1.9377e-05 -2.8927e-06 9.2853e-06 
1.9302e-05 -2.7557e-06 8.1057e-06 1.9291e-05 -2.4953e-06 6.9166e-06 1.9069e-05 -2.1545e-06 5.7183e-06 
[...]
CELL_DATA 2
FIELD FieldData 8
cell_id 1 2 int
0 1 
METADATA
INFORMATION 0

cell_type_id 1 2 int
0 0 
METADATA
INFORMATION 0

cell_area 1 2 float
2.214e-09 2.211e-09 
METADATA
INFORMATION 0

cell_volume 1 2 float
9.111e-15 9.112e-15 
METADATA
INFORMATION 0

cell_pressure 1 2 float
145.8 145.6 
METADATA
INFORMATION 0

cell_growth_rate 1 2 float
0 0 
METADATA
INFORMATION 0

cell_division_vol 1 2 float
1e+20 1e+20 
METADATA
INFORMATION 0

cell_is_static 1 2 int
0 0 
METADATA
INFORMATION 0

