# vtk DataFile Version 4.3
vtk output
ASCII
DATASET UNSTRUCTURED_GRID
POINTS 16 float
4.5e-07 0 0 7.45e-06 0 0 7.45e-06 7e-06 0 
4.5e-07 7e-06 0 4.5e-07 0 7e-06 7.45e-06 0 7e-06 
7.45e-06 7e-06 7e-06 4.5e-07 7e-06 7e-06 7.5e-06 0 0 
1.45e-05 0 0 1.45e-05 7e-06 0 7.5e-06 7e-06 0 
7.5e-06 0 7e-06 1.45e-05 0 7e-06 1.45e-05 7e-06 7e-06 
7.5e-06 7e-06 7e-06 
METADATA
INFORMATION 2
NAME L2_NORM_RANGE LOCATION vtkDataArray
DATA 2 4.5e-07 1.75571e-05 
NAME L2_NORM_FINITE_RANGE LOCATION vtkDataArray
DATA 2 4.5e-07 1.75571e-05 

CELLS 2 18
8 0 1 2 3 4 5 6 7 
8 8 9 10 11 12 13 14 15 

CELL_TYPES 2
12
12

CELL_DATA 2
FIELD FieldData 2
Cell_type_id 1 2 int
1 1 
METADATA
INFORMATION 0

vtkOriginalCellIds 1 2 vtkIdType
1 0 
POINT_DATA 16
FIELD FieldData 1
vtkOriginalPointIds 1 16 vtkIdType
8 9 10 11 12 13 14 15 0 
1 2 3 4 5 6 7 
