# vtk DataFile Version 4.2
vtk output
ASCII
DATASET UNSTRUCTURED_GRID
POINTS 300 float
6.6e-06 0 2e-05 3.3e-06 5.7158e-06 2e-05 -3.3e-06 5.7158e-06 2e-05 
-6.6e-06 0 2e-05 -3.3e-06 -5.7158e-06 2e-05 3.3e-06 -5.7158e-06 2e-05 
6.6e-06 0 -2e-05 3.3e-06 5.7158e-06 -2e-05 -3.3e-06 5.7158e-06 -2e-05 
-6.6e-06 0 -2e-05 -3.3e-06 -5.7158e-06 -2e-05 3.3e-06 -5.7158e-06 -2e-05 
1.65e-05 5.7158e-06 2e-05 1.32e-05 1.14316e-05 2e-05 6.6e-06 1.14316e-05 2e-05 
3.3e-06 5.7158e-06 2e-05 6.6e-06 0 2e-05 1.32e-05 0 2e-05 
1.65e-05 5.7158e-06 -2e-05 1.32e-05 1.14316e-05 -2e-05 6.6e-06 1.14316e-05 -2e-05 
3.3e-06 5.7158e-06 -2e-05 6.6e-06 0 -2e-05 1.32e-05 0 -2e-05 
2.64e-05 0 2e-05 2.31e-05 5.7158e-06 2e-05 1.65e-05 5.7158e-06 2e-05 
1.32e-05 0 2e-05 1.65e-05 -5.7158e-06 2e-05 2.31e-05 -5.7158e-06 2e-05 
2.64e-05 0 -2e-05 2.31e-05 5.7158e-06 -2e-05 1.65e-05 5.7158e-06 -2e-05 
1.32e-05 0 -2e-05 1.65e-05 -5.7158e-06 -2e-05 2.31e-05 -5.7158e-06 -2e-05 
3.63e-05 5.7158e-06 2e-05 3.3e-05 1.14316e-05 2e-05 2.64e-05 1.14316e-05 2e-05 
2.31e-05 5.7158e-06 2e-05 2.64e-05 0 2e-05 3.3e-05 0 2e-05 
3.63e-05 5.7158e-06 -2e-05 3.3e-05 1.14316e-05 -2e-05 2.64e-05 1.14316e-05 -2e-05 
2.31e-05 5.7158e-06 -2e-05 2.64e-05 0 -2e-05 3.3e-05 0 -2e-05 
4.62e-05 0 2e-05 4.29e-05 5.7158e-06 2e-05 3.63e-05 5.7158e-06 2e-05 
3.3e-05 0 2e-05 3.63e-05 -5.7158e-06 2e-05 4.29e-05 -5.7158e-06 2e-05 
4.62e-05 0 -2e-05 4.29e-05 5.7158e-06 -2e-05 3.63e-05 5.7158e-06 -2e-05 
3.3e-05 0 -2e-05 3.63e-05 -5.7158e-06 -2e-05 4.29e-05 -5.7158e-06 -2e-05 
6.6e-06 1.14315e-05 2e-05 3.3e-06 1.71473e-05 2e-05 -3.3e-06 1.71473e-05 2e-05 
-6.6e-06 1.14315e-05 2e-05 -3.3e-06 5.7157e-06 2e-05 3.3e-06 5.7157e-06 2e-05 
6.6e-06 1.14315e-05 -2e-05 3.3e-06 1.71473e-05 -2e-05 -3.3e-06 1.71473e-05 -2e-05 
-6.6e-06 1.14315e-05 -2e-05 -3.3e-06 5.7157e-06 -2e-05 3.3e-06 5.7157e-06 -2e-05 
1.65e-05 1.71473e-05 2e-05 1.32e-05 2.28631e-05 2e-05 6.6e-06 2.28631e-05 2e-05 
3.3e-06 1.71473e-05 2e-05 6.6e-06 1.14315e-05 2e-05 1.32e-05 1.14315e-05 2e-05 
1.65e-05 1.71473e-05 -2e-05 1.32e-05 2.28631e-05 -2e-05 6.6e-06 2.28631e-05 -2e-05 
3.3e-06 1.71473e-05 -2e-05 6.6e-06 1.14315e-05 -2e-05 1.32e-05 1.14315e-05 -2e-05 
2.64e-05 1.14315e-05 2e-05 2.31e-05 1.71473e-05 2e-05 1.65e-05 1.71473e-05 2e-05 
1.32e-05 1.14315e-05 2e-05 1.65e-05 5.7157e-06 2e-05 2.31e-05 5.7157e-06 2e-05 
2.64e-05 1.14315e-05 -2e-05 2.31e-05 1.71473e-05 -2e-05 1.65e-05 1.71473e-05 -2e-05 
1.32e-05 1.14315e-05 -2e-05 1.65e-05 5.7157e-06 -2e-05 2.31e-05 5.7157e-06 -2e-05 
3.63e-05 1.71473e-05 2e-05 3.3e-05 2.28631e-05 2e-05 2.64e-05 2.28631e-05 2e-05 
2.31e-05 1.71473e-05 2e-05 2.64e-05 1.14315e-05 2e-05 3.3e-05 1.14315e-05 2e-05 
3.63e-05 1.71473e-05 -2e-05 3.3e-05 2.28631e-05 -2e-05 2.64e-05 2.28631e-05 -2e-05 
2.31e-05 1.71473e-05 -2e-05 2.64e-05 1.14315e-05 -2e-05 3.3e-05 1.14315e-05 -2e-05 
4.62e-05 1.14315e-05 2e-05 4.29e-05 1.71473e-05 2e-05 3.63e-05 1.71473e-05 2e-05 
3.3e-05 1.14315e-05 2e-05 3.63e-05 5.7157e-06 2e-05 4.29e-05 5.7157e-06 2e-05 
4.62e-05 1.14315e-05 -2e-05 4.29e-05 1.71473e-05 -2e-05 3.63e-05 1.71473e-05 -2e-05 
3.3e-05 1.14315e-05 -2e-05 3.63e-05 5.7157e-06 -2e-05 4.29e-05 5.7157e-06 -2e-05 
6.6e-06 2.28631e-05 2e-05 3.3e-06 2.85789e-05 2e-05 -3.3e-06 2.85789e-05 2e-05 
-6.6e-06 2.28631e-05 2e-05 -3.3e-06 1.71473e-05 2e-05 3.3e-06 1.71473e-05 2e-05 
6.6e-06 2.28631e-05 -2e-05 3.3e-06 2.85789e-05 -2e-05 -3.3e-06 2.85789e-05 -2e-05 
-6.6e-06 2.28631e-05 -2e-05 -3.3e-06 1.71473e-05 -2e-05 3.3e-06 1.71473e-05 -2e-05 
1.65e-05 2.85789e-05 2e-05 1.32e-05 3.42947e-05 2e-05 6.6e-06 3.42947e-05 2e-05 
3.3e-06 2.85789e-05 2e-05 6.6e-06 2.28631e-05 2e-05 1.32e-05 2.28631e-05 2e-05 
1.65e-05 2.85789e-05 -2e-05 1.32e-05 3.42947e-05 -2e-05 6.6e-06 3.42947e-05 -2e-05 
3.3e-06 2.85789e-05 -2e-05 6.6e-06 2.28631e-05 -2e-05 1.32e-05 2.28631e-05 -2e-05 
2.64e-05 2.28631e-05 2e-05 2.31e-05 2.85789e-05 2e-05 1.65e-05 2.85789e-05 2e-05 
1.32e-05 2.28631e-05 2e-05 1.65e-05 1.71473e-05 2e-05 2.31e-05 1.71473e-05 2e-05 
2.64e-05 2.28631e-05 -2e-05 2.31e-05 2.85789e-05 -2e-05 1.65e-05 2.85789e-05 -2e-05 
1.32e-05 2.28631e-05 -2e-05 1.65e-05 1.71473e-05 -2e-05 2.31e-05 1.71473e-05 -2e-05 
3.63e-05 2.85789e-05 2e-05 3.3e-05 3.42947e-05 2e-05 2.64e-05 3.42947e-05 2e-05 
2.31e-05 2.85789e-05 2e-05 2.64e-05 2.28631e-05 2e-05 3.3e-05 2.28631e-05 2e-05 
3.63e-05 2.85789e-05 -2e-05 3.3e-05 3.42947e-05 -2e-05 2.64e-05 3.42947e-05 -2e-05 
2.31e-05 2.85789e-05 -2e-05 2.64e-05 2.28631e-05 -2e-05 3.3e-05 2.28631e-05 -2e-05 
4.62e-05 2.28631e-05 2e-05 4.29e-05 2.85789e-05 2e-05 3.63e-05 2.85789e-05 2e-05 
3.3e-05 2.28631e-05 2e-05 3.63e-05 1.71473e-05 2e-05 4.29e-05 1.71473e-05 2e-05 
4.62e-05 2.28631e-05 -2e-05 4.29e-05 2.85789e-05 -2e-05 3.63e-05 2.85789e-05 -2e-05 
3.3e-05 2.28631e-05 -2e-05 3.63e-05 1.71473e-05 -2e-05 4.29e-05 1.71473e-05 -2e-05 
6.6e-06 3.42946e-05 2e-05 3.3e-06 4.00104e-05 2e-05 -3.3e-06 4.00104e-05 2e-05 
-6.6e-06 3.42946e-05 2e-05 -3.3e-06 2.85788e-05 2e-05 3.3e-06 2.85788e-05 2e-05 
6.6e-06 3.42946e-05 -2e-05 3.3e-06 4.00104e-05 -2e-05 -3.3e-06 4.00104e-05 -2e-05 
-6.6e-06 3.42946e-05 -2e-05 -3.3e-06 2.85788e-05 -2e-05 3.3e-06 2.85788e-05 -2e-05 
1.65e-05 4.00104e-05 2e-05 1.32e-05 4.57262e-05 2e-05 6.6e-06 4.57262e-05 2e-05 
3.3e-06 4.00104e-05 2e-05 6.6e-06 3.42946e-05 2e-05 1.32e-05 3.42946e-05 2e-05 
1.65e-05 4.00104e-05 -2e-05 1.32e-05 4.57262e-05 -2e-05 6.6e-06 4.57262e-05 -2e-05 
3.3e-06 4.00104e-05 -2e-05 6.6e-06 3.42946e-05 -2e-05 1.32e-05 3.42946e-05 -2e-05 
2.64e-05 3.42946e-05 2e-05 2.31e-05 4.00104e-05 2e-05 1.65e-05 4.00104e-05 2e-05 
1.32e-05 3.42946e-05 2e-05 1.65e-05 2.85788e-05 2e-05 2.31e-05 2.85788e-05 2e-05 
2.64e-05 3.42946e-05 -2e-05 2.31e-05 4.00104e-05 -2e-05 1.65e-05 4.00104e-05 -2e-05 
1.32e-05 3.42946e-05 -2e-05 1.65e-05 2.85788e-05 -2e-05 2.31e-05 2.85788e-05 -2e-05 
3.63e-05 4.00104e-05 2e-05 3.3e-05 4.57262e-05 2e-05 2.64e-05 4.57262e-05 2e-05 
2.31e-05 4.00104e-05 2e-05 2.64e-05 3.42946e-05 2e-05 3.3e-05 3.42946e-05 2e-05 
3.63e-05 4.00104e-05 -2e-05 3.3e-05 4.57262e-05 -2e-05 2.64e-05 4.57262e-05 -2e-05 
2.31e-05 4.00104e-05 -2e-05 2.64e-05 3.42946e-05 -2e-05 3.3e-05 3.42946e-05 -2e-05 
4.62e-05 3.42946e-05 2e-05 4.29e-05 4.00104e-05 2e-05 3.63e-05 4.00104e-05 2e-05 
3.3e-05 3.42946e-05 2e-05 3.63e-05 2.85788e-05 2e-05 4.29e-05 2.85788e-05 2e-05 
4.62e-05 3.42946e-05 -2e-05 4.29e-05 4.00104e-05 -2e-05 3.63e-05 4.00104e-05 -2e-05 
3.3e-05 3.42946e-05 -2e-05 3.63e-05 2.85788e-05 -2e-05 4.29e-05 2.85788e-05 -2e-05 
6.6e-06 4.57261e-05 2e-05 3.3e-06 5.14419e-05 2e-05 -3.3e-06 5.14419e-05 2e-05 
-6.6e-06 4.57261e-05 2e-05 -3.3e-06 4.00103e-05 2e-05 3.3e-06 4.00103e-05 2e-05 
6.6e-06 4.57261e-05 -2e-05 3.3e-06 5.14419e-05 -2e-05 -3.3e-06 5.14419e-05 -2e-05 
-6.6e-06 4.57261e-05 -2e-05 -3.3e-06 4.00103e-05 -2e-05 3.3e-06 4.00103e-05 -2e-05 
1.65e-05 5.14419e-05 2e-05 1.32e-05 5.71577e-05 2e-05 6.6e-06 5.71577e-05 2e-05 
3.3e-06 5.14419e-05 2e-05 6.6e-06 4.57261e-05 2e-05 1.32e-05 4.57261e-05 2e-05 
1.65e-05 5.14419e-05 -2e-05 1.32e-05 5.71577e-05 -2e-05 6.6e-06 5.71577e-05 -2e-05 
3.3e-06 5.14419e-05 -2e-05 6.6e-06 4.57261e-05 -2e-05 1.32e-05 4.57261e-05 -2e-05 
2.64e-05 4.57261e-05 2e-05 2.31e-05 5.14419e-05 2e-05 1.65e-05 5.14419e-05 2e-05 
1.32e-05 4.57261e-05 2e-05 1.65e-05 4.00103e-05 2e-05 2.31e-05 4.00103e-05 2e-05 
2.64e-05 4.57261e-05 -2e-05 2.31e-05 5.14419e-05 -2e-05 1.65e-05 5.14419e-05 -2e-05 
1.32e-05 4.57261e-05 -2e-05 1.65e-05 4.00103e-05 -2e-05 2.31e-05 4.00103e-05 -2e-05 
3.63e-05 5.14419e-05 2e-05 3.3e-05 5.71577e-05 2e-05 2.64e-05 5.71577e-05 2e-05 
2.31e-05 5.14419e-05 2e-05 2.64e-05 4.57261e-05 2e-05 3.3e-05 4.57261e-05 2e-05 
3.63e-05 5.14419e-05 -2e-05 3.3e-05 5.71577e-05 -2e-05 2.64e-05 5.71577e-05 -2e-05 
2.31e-05 5.14419e-05 -2e-05 2.64e-05 4.57261e-05 -2e-05 3.3e-05 4.57261e-05 -2e-05 
4.62e-05 4.57261e-05 2e-05 4.29e-05 5.14419e-05 2e-05 3.63e-05 5.14419e-05 2e-05 
3.3e-05 4.57261e-05 2e-05 3.63e-05 4.00103e-05 2e-05 4.29e-05 4.00103e-05 2e-05 
4.62e-05 4.57261e-05 -2e-05 4.29e-05 5.14419e-05 -2e-05 3.63e-05 5.14419e-05 -2e-05 
3.3e-05 4.57261e-05 -2e-05 3.63e-05 4.00103e-05 -2e-05 4.29e-05 4.00103e-05 -2e-05 

METADATA
INFORMATION 2
NAME L2_NORM_RANGE LOCATION vtkDataArray
DATA 2 2.10608e-05 6.99048e-05 
NAME L2_NORM_FINITE_RANGE LOCATION vtkDataArray
DATA 2 2.10608e-05 6.99048e-05 

CELLS 25 1150
45 8 6 0 1 2 3 4 5 6 6 7 8 9 10 11 4 0 1 7 6 4 1 2 8 7 4 2 3 9 8 4 3 4 10 9 4 4 5 11 10 4 5 0 6 11 
45 8 6 12 13 14 15 16 17 6 18 19 20 21 22 23 4 12 13 19 18 4 13 14 20 19 4 14 15 21 20 4 15 16 22 21 4 16 17 23 22 4 17 12 18 
45 8 6 24 25 26 27 28 29 6 30 31 32 33 34 35 4 24 25 31 30 4 25 26 32 31 4 26 27 33 32 4 27 28 34 33 4 28 29 35 34 4 29 24 30 35 
45 8 6 36 37 38 39 40 41 6 42 43 44 45 46 47 4 36 37 43 42 4 37 38 44 43 4 38 39 45 44 4 39 40 46 45 4 40 41 47 46 4 41 36 42 47 
45 8 6 48 49 50 51 52 53 6 54 55 56 57 58 59 4 48 49 55 54 4 49 50 56 55 4 50 51 57 56 4 51 52 58 57 4 52 53 59 58 4 53 48 54 59 
45 8 6 60 61 62 63 64 65 6 66 67 68 69 70 71 4 60 61 67 66 4 61 62 68 67 4 62 63 69 68 4 63 64 70 69 4 64 65 71 70 4 65 60 66 71 
45 8 6 72 73 74 75 76 77 6 78 79 80 81 82 83 4 72 73 79 78 4 73 74 80 79 4 74 75 81 80 4 75 76 82 81 4 76 77 83 82 4 77 72 78 83 
45 8 6 84 85 86 87 88 89 6 90 91 92 93 94 95 4 84 85 91 90 4 85 86 92 91 4 86 87 93 92 4 87 88 94 93 4 88 89 95 94 4 89 84 90 95 
45 8 6 96 97 98 99 100 101 6 102 103 104 105 106 107 4 96 97 103 102 4 97 98 104 103 4 98 99 105 104 4 99 100 106 105 4 100 101 107 106 4 101 96 102 107 
45 8 6 108 109 110 111 112 113 6 114 115 116 117 118 119 4 108 109 115 114 4 109 110 116 115 4 110 111 117 116 4 111 112 118 117 4 112 113 119 118 4 113 108 114 119 
45 8 6 120 121 122 123 124 125 6 126 127 128 129 130 131 4 120 121 127 126 4 121 122 128 127 4 122 123 129 128 4 123 124 130 129 4 124 125 131 130 4 125 120 126 131 
45 8 6 132 133 134 135 136 137 6 138 139 140 141 142 143 4 132 133 139 138 4 133 134 140 139 4 134 135 141 140 4 135 136 142 141 4 136 137 143 142 4 137 132 138 143 
45 8 6 144 145 146 147 148 149 6 150 151 152 153 154 155 4 144 145 151 150 4 145 146 152 151 4 146 147 153 152 4 147 148 154 153 4 148 149 155 154 4 149 144 150 155 
45 8 6 156 157 158 159 160 161 6 162 163 164 165 166 167 4 156 157 163 162 4 157 158 164 163 4 158 159 165 164 4 159 160 166 165 4 160 161 167 166 4 161 156 162 167 
45 8 6 168 169 170 171 172 173 6 174 175 176 177 178 179 4 168 169 175 174 4 169 170 176 175 4 170 171 177 176 4 171 172 178 177 4 172 173 179 178 4 173 168 174 179 
45 8 6 180 181 182 183 184 185 6 186 187 188 189 190 191 4 180 181 187 186 4 181 182 188 187 4 182 183 189 188 4 183 184 190 189 4 184 185 191 190 4 185 180 186 191 
45 8 6 192 193 194 195 196 197 6 198 199 200 201 202 203 4 192 193 199 198 4 193 194 200 199 4 194 195 201 200 4 195 196 202 201 4 196 197 203 202 4 197 192 198 203 
45 8 6 204 205 206 207 208 209 6 210 211 212 213 214 215 4 204 205 211 210 4 205 206 212 211 4 206 207 213 212 4 207 208 214 213 4 208 209 215 214 4 209 204 210 215 
45 8 6 216 217 218 219 220 221 6 222 223 224 225 226 227 4 216 217 223 222 4 217 218 224 223 4 218 219 225 224 4 219 220 226 225 4 220 221 227 226 4 221 216 222 227 
45 8 6 228 229 230 231 232 233 6 234 235 236 237 238 239 4 228 229 235 234 4 229 230 236 235 4 230 231 237 236 4 231 232 238 237 4 232 233 239 238 4 233 228 234 239 
45 8 6 240 241 242 243 244 245 6 246 247 248 249 250 251 4 240 241 247 246 4 241 242 248 247 4 242 243 249 248 4 243 244 250 249 4 244 245 251 250 4 245 240 246 251 
45 8 6 252 253 254 255 256 257 6 258 259 260 261 262 263 4 252 253 259 258 4 253 254 260 259 4 254 255 261 260 4 255 256 262 261 4 256 257 263 262 4 257 252 258 263 
45 8 6 264 265 266 267 268 269 6 270 271 272 273 274 275 4 264 265 271 270 4 265 266 272 271 4 266 267 273 272 4 267 268 274 273 4 268 269 275 274 4 269 264 270 275 
45 8 6 276 277 278 279 280 281 6 282 283 284 285 286 287 4 276 277 283 282 4 277 278 284 283 4 278 279 285 284 4 279 280 286 285 4 280 281 287 286 4 281 276 282 287 
45 8 6 288 289 290 291 292 293 6 294 295 296 297 298 299 4 288 289 295 294 4 289 290 296 295 4 290 291 297 296 4 291 292 298 297 4 292 293 299 298 4 293 288 294 299 
CELL_TYPES 25
42
42
42
42
42
42
42
42
42
42
42
42
42
42
42
42
42
42
42
42
42
42
42
42
42

CELL_DATA 25
FIELD FieldData 1
Cell_type_id 1 25 int
1 1 1 1 1 1 1 1 1 
1 1 1 1 1 1 1 1 1 
1 1 1 1 1 1 1 
METADATA
INFORMATION 0
