# vtk DataFile Version 4.2
vtk output
ASCII
DATASET UNSTRUCTURED_GRID
POINTS 21725 float
2.1000e-05 6.9746e-06 2.0476e-05 2.1000e-05 6.5092e-06 1.9311e-05 2.1000e-05 6.9868e-06 1.7233e-05
2.1000e-05 6.4804e-06 2.0340e-05 2.1000e-05 6.0667e-06 1.9922e-05 2.1000e-05 6.3954e-06 1.8806e-05
2.1000e-05 6.0422e-06 1.8351e-05 2.1000e-05 6.4119e-06 1.7994e-05 2.1000e-05 6.4436e-06 1.7355e-05
2.1000e-05 6.3620e-06 1.6461e-05 2.1000e-05 6.3909e-06 1.5905e-05 2.1000e-05 6.4566e-06 1.5312e-05
2.1000e-05 6.3901e-06 1.4652e-05 2.1000e-05 5.9587e-06 2.0446e-05 2.1000e-05 5.9886e-06 1.9371e-05
2.1000e-05 5.8544e-06 1.8875e-05 2.1000e-05 5.9758e-06 1.7675e-05 2.1000e-05 5.9838e-06 1.6917e-05
2.1000e-05 5.8547e-06 1.6264e-05 2.1000e-05 5.7777e-06 1.5474e-05 2.1000e-05 5.8728e-06 1.4488e-05
2.1000e-05 5.4587e-06 2.0429e-05 2.1000e-05 5.4587e-06 1.9914e-05 2.1000e-05 5.4715e-06 1.9318e-05
2.1000e-05 5.4836e-06 1.8486e-05 2.1000e-05 5.4204e-06 1.7669e-05 2.1000e-05 5.4595e-06 1.6969e-05
2.1000e-05 5.4685e-06 1.5926e-05 2.1000e-05 5.4649e-06 1.4981e-05 2.1000e-05 5.3224e-06 1.4494e-05
2.1000e-05 4.7993e-06 2.0445e-05 2.1000e-05 4.8196e-06 1.9861e-05 2.1000e-05 4.9195e-06 1.9069e-05
2.1000e-05 4.9753e-06 1.8395e-05 2.1000e-05 4.8581e-06 1.7897e-05 2.1000e-05 4.9754e-06 1.7115e-05
2.1000e-05 4.9206e-06 1.6476e-05 2.1000e-05 4.9245e-06 1.5912e-05 2.1000e-05 4.9607e-06 1.5335e-05
2.1000e-05 4.6051e-06 1.4958e-05 2.1000e-05 4.6627e-06 1.4455e-05 2.1000e-05 4.3603e-06 2.0151e-05
2.1000e-05 4.4865e-06 1.9381e-05 2.1000e-05 4.4972e-06 1.8751e-05 2.1000e-05 4.4484e-06 1.8225e-05
2.1000e-05 4.4819e-06 1.7421e-05 2.1000e-05 4.4867e-06 1.6740e-05 2.1000e-05 4.4767e-06 1.6194e-05
2.1000e-05 4.4500e-06 1.5497e-05 2.1000e-05 4.1234e-06 1.4440e-05 2.1000e-05 3.9785e-06 2.0477e-05
2.1000e-05 3.9909e-06 1.9531e-05 2.1000e-05 3.9939e-06 1.9013e-05 2.1000e-05 3.9880e-06 1.8469e-05
2.1000e-05 3.9569e-06 1.7965e-05 2.1000e-05 3.9778e-06 1.7314e-05 2.1000e-05 3.9487e-06 1.6481e-05
2.1000e-05 3.9582e-06 1.5830e-05 2.1000e-05 3.9616e-06 1.4951e-05 2.1000e-05 3.4245e-06 2.0686e-05
2.1000e-05 3.4813e-06 1.9996e-05 2.1000e-05 3.4775e-06 1.9332e-05 2.1000e-05 3.4732e-06 1.8655e-05
2.1000e-05 3.3707e-06 1.7998e-05 2.1000e-05 3.3474e-06 1.7294e-05 2.1000e-05 3.4641e-06 1.6706e-05
2.1000e-05 3.4655e-06 1.5934e-05 2.1000e-05 3.4605e-06 1.5423e-05 2.1000e-05 3.4752e-06 1.4484e-05
2.1000e-05 2.7523e-06 2.0463e-05 2.1000e-05 2.9497e-06 1.9913e-05 2.1000e-05 2.9950e-06 1.8993e-05
2.1000e-05 2.9851e-06 1.8370e-05 2.1000e-05 2.9780e-06 1.7684e-05 2.1000e-05 2.9670e-06 1.6788e-05
2.1000e-05 2.9766e-06 1.6287e-05 2.1000e-05 2.9516e-06 1.5651e-05 2.1000e-05 2.9233e-06 1.4976e-05
2.1000e-05 2.9412e-06 1.4468e-05 2.1000e-05 2.4573e-06 2.0036e-05 2.1000e-05 2.4255e-06 1.9480e-05
2.1000e-05 2.3981e-06 1.8794e-05 2.1000e-05 2.4678e-06 1.8273e-05 2.1000e-05 2.4364e-06 1.7651e-05
2.1000e-05 2.4804e-06 1.7144e-05 2.1000e-05 2.4790e-06 1.6495e-05 2.1000e-05 2.4776e-06 1.5875e-05
2.1000e-05 2.4526e-06 1.5281e-05 2.1000e-05 2.4463e-06 1.4692e-05 2.1000e-05 1.8184e-06 2.0374e-05
2.1000e-05 1.8694e-06 1.9819e-05 2.1000e-05 1.9918e-06 1.9179e-05 2.1000e-05 1.8712e-06 1.8471e-05
2.1000e-05 1.9447e-06 1.7907e-05 2.1000e-05 1.9209e-06 1.7325e-05 2.1000e-05 1.8926e-06 1.6634e-05
2.1000e-05 1.8587e-06 1.5973e-05 2.1000e-05 1.9886e-06 1.5490e-05 2.1000e-05 1.9284e-06 1.4757e-05
2.1000e-05 1.9331e-06 1.4136e-05 2.1000e-05 1.4050e-06 2.0847e-05 2.1000e-05 1.0213e-06 2.0440e-05
2.1000e-05 1.4914e-06 1.9380e-05 2.1000e-05 1.1830e-06 1.8492e-05 2.1000e-05 1.4366e-06 1.6962e-05
2.1000e-05 1.4147e-06 1.6409e-05 2.1000e-05 1.4380e-06 1.5551e-05 2.1000e-05 1.4362e-06 1.4991e-05
2.1000e-05 1.4774e-06 1.4426e-05 2.1000e-05 9.9461e-07 1.9939e-05 2.1000e-05 9.8493e-07 1.9436e-05
2.1000e-05 8.7552e-07 1.8908e-05 2.1000e-05 9.5018e-07 1.7976e-05 2.1000e-05 9.8470e-07 1.7475e-05
2.1000e-05 8.7054e-07 1.6947e-05 2.1000e-05 9.4588e-07 1.5991e-05 2.1000e-05 8.9077e-07 1.5115e-05
2.1000e-05 9.6613e-07 1.4492e-05 2.1000e-05 4.7497e-07 2.0643e-05 2.1000e-05 4.7995e-07 1.9989e-05
2.1000e-05 4.8675e-07 1.9383e-05 2.1000e-05 4.6657e-07 1.8489e-05 2.1000e-05 4.5940e-07 1.7766e-05
2.1000e-05 4.0019e-07 1.7120e-05 2.1000e-05 4.1133e-07 1.6361e-05 2.1000e-05 4.8907e-07 1.5728e-05
2.1000e-05 3.7636e-07 1.4914e-05 2.1000e-05 2.2096e-07 1.4038e-05 2.0819e-05 7.0000e-06 1.9958e-05
2.0955e-05 7.0000e-06 1.9456e-05 2.0962e-05 7.0000e-06 1.8336e-05 2.0673e-05 7.0000e-06 1.7704e-05
2.0775e-05 7.0000e-06 1.6640e-05 2.0931e-05 7.0000e-06 1.5787e-05 2.0957e-05 7.0000e-06 1.5179e-05
2.0997e-05 7.0000e-06 1.4498e-05 2.0984e-05 6.9161e-06 2.1000e-05 2.0995e-05 6.5379e-06 1.4000e-05
2.0909e-05 6.4104e-06 2.1000e-05 2.0962e-05 6.0146e-06 1.4000e-05 2.0964e-05 5.8271e-06 2.1000e-05
2.0958e-05 5.4952e-06 1.4000e-05 2.0824e-05 4.9951e-06 2.1000e-05 2.0975e-05 4.9635e-06 1.4000e-05
2.0980e-05 4.4300e-06 2.1000e-05 2.0943e-05 4.3924e-06 1.4000e-05 2.0962e-05 3.8376e-06 2.1000e-05
2.0915e-05 3.8105e-06 1.4000e-05 2.0904e-05 3.2866e-06 1.4000e-05 2.0794e-05 2.9795e-06 2.1000e-05
2.0895e-05 2.4688e-06 2.1000e-05 2.0872e-05 2.4893e-06 1.4000e-05 2.0847e-05 1.8956e-06 2.1000e-05
2.0925e-05 8.8014e-07 2.1000e-05 2.0987e-05 7.7246e-07 1.4000e-05 2.0977e-05 4.4816e-08 2.1000e-05
2.0923e-05 0.0000e+00 2.0284e-05 2.0980e-05 0.0000e+00 1.9705e-05 2.0860e-05 0.0000e+00 1.8926e-05
2.0999e-05 0.0000e+00 1.8006e-05 2.0997e-05 0.0000e+00 1.7434e-05 2.0957e-05 0.0000e+00 1.6706e-05
2.0968e-05 0.0000e+00 1.5958e-05 2.0854e-05 0.0000e+00 1.5289e-05 2.0987e-05 0.0000e+00 1.4491e-05
2.0368e-05 7.0000e-06 2.0372e-05 2.0267e-05 7.0000e-06 1.9462e-05 2.0480e-05 7.0000e-06 1.8974e-05
2.0463e-05 7.0000e-06 1.8470e-05 2.0196e-05 7.0000e-06 1.7961e-05 2.0476e-05 7.0000e-06 1.7238e-05
2.0471e-05 7.0000e-06 1.6209e-05 2.0489e-05 7.0000e-06 1.5529e-05 2.0487e-05 7.0000e-06 1.4924e-05
2.0492e-05 7.0000e-06 1.4401e-05 2.0474e-05 6.6764e-06 2.1000e-05 2.0482e-05 6.6519e-06 1.4000e-05
2.0275e-05 5.8290e-06 2.1000e-05 2.0282e-05 5.9493e-06 1.4000e-05 2.0360e-05 5.3298e-06 2.1000e-05
2.0453e-05 5.4336e-06 1.4000e-05 2.0472e-05 4.8839e-06 1.4000e-05 2.0488e-05 4.2775e-06 2.1000e-05
2.0476e-05 4.0912e-06 1.4000e-05 2.0437e-05 3.7775e-06 2.1000e-05 2.0428e-05 3.5562e-06 1.4000e-05
2.0323e-05 3.2423e-06 2.1000e-05 2.0469e-05 2.9996e-06 1.4000e-05 2.0355e-05 2.3050e-06 2.1000e-05
2.0490e-05 2.0215e-06 1.4000e-05 2.0483e-05 1.4940e-06 2.1000e-05 2.0480e-05 1.4720e-06 1.4000e-05
2.0408e-05 9.2119e-07 2.1000e-05 2.0437e-05 6.7224e-07 1.4000e-05 2.0447e-05 4.1823e-07 2.1000e-05
2.0488e-05 0.0000e+00 2.0603e-05 2.0478e-05 0.0000e+00 1.9996e-05 2.0494e-05 0.0000e+00 1.9476e-05
2.0468e-05 0.0000e+00 1.8577e-05 2.0434e-05 0.0000e+00 1.7901e-05 2.0474e-05 0.0000e+00 1.7169e-05
2.0496e-05 0.0000e+00 1.6491e-05 2.0462e-05 0.0000e+00 1.5821e-05 2.0434e-05 0.0000e+00 1.4988e-05
2.0453e-05 0.0000e+00 1.4283e-05 1.9944e-05 7.0000e-06 2.0667e-05 1.9877e-05 7.0000e-06 1.9888e-05
1.9953e-05 7.0000e-06 1.8724e-05 1.9702e-05 7.0000e-06 1.7885e-05 1.9999e-05 7.0000e-06 1.7448e-05
1.9978e-05 7.0000e-06 1.6939e-05 1.9877e-05 7.0000e-06 1.6428e-05 1.9988e-05 7.0000e-06 1.5422e-05
1.9972e-05 7.0000e-06 1.4708e-05 1.9961e-05 6.9729e-06 1.4000e-05 1.9994e-05 6.4868e-06 2.1000e-05
1.9908e-05 6.4110e-06 1.4000e-05 1.9887e-05 5.5015e-06 2.1000e-05 1.9765e-05 5.9257e-06 1.4000e-05
1.9946e-05 5.3751e-06 1.4000e-05 1.9964e-05 4.9589e-06 2.1000e-05 1.9917e-05 4.8415e-06 1.4000e-05
1.9896e-05 4.4483e-06 2.1000e-05 1.9917e-05 3.9395e-06 2.1000e-05 1.9973e-05 3.8059e-06 1.4000e-05
1.9940e-05 3.1535e-06 1.4000e-05 1.9991e-05 2.7637e-06 2.1000e-05 1.9929e-05 2.4815e-06 1.4000e-05
1.9942e-05 1.9092e-06 2.1000e-05 1.9985e-05 1.8881e-06 1.4000e-05 1.9923e-05 1.2323e-06 2.1000e-05
1.9918e-05 1.1463e-06 1.4000e-05 1.9939e-05 5.0379e-07 2.1000e-05 1.9948e-05 5.3483e-07 1.4000e-05
1.9852e-05 0.0000e+00 2.0956e-05 1.9998e-05 0.0000e+00 2.0432e-05 1.9888e-05 0.0000e+00 1.9893e-05
1.9734e-05 0.0000e+00 1.9365e-05 1.9999e-05 0.0000e+00 1.8881e-05 1.9965e-05 0.0000e+00 1.8346e-05
1.9998e-05 0.0000e+00 1.7387e-05 1.9975e-05 0.0000e+00 1.6639e-05 1.9903e-05 0.0000e+00 1.6137e-05
1.9992e-05 0.0000e+00 1.5410e-05 1.9978e-05 0.0000e+00 1.4757e-05 1.9924e-05 0.0000e+00 1.4246e-05
1.9478e-05 7.0000e-06 2.0451e-05 1.9107e-05 7.0000e-06 1.9959e-05 1.9486e-05 7.0000e-06 1.9496e-05
1.9493e-05 7.0000e-06 1.8421e-05 1.9375e-05 7.0000e-06 1.7484e-05 1.9294e-05 7.0000e-06 1.6985e-05
1.9463e-05 7.0000e-06 1.5956e-05 1.9357e-05 7.0000e-06 1.5387e-05 1.9480e-05 7.0000e-06 1.4843e-05
1.9340e-05 6.9048e-06 2.1000e-05 1.9426e-05 6.9911e-06 1.4000e-05 1.9426e-05 6.3826e-06 2.1000e-05
1.9390e-05 6.3238e-06 1.4000e-05 1.9465e-05 5.8313e-06 2.1000e-05 1.9446e-05 5.5212e-06 1.4000e-05
1.9452e-05 5.1624e-06 2.1000e-05 1.9375e-05 4.6204e-06 2.1000e-05 1.9357e-05 4.9880e-06 1.4000e-05
1.9485e-05 4.4888e-06 1.4000e-05 1.9316e-05 3.8842e-06 2.1000e-05 1.9347e-05 3.9925e-06 1.4000e-05
1.9494e-05 3.4095e-06 2.1000e-05 1.9332e-05 3.3496e-06 1.4000e-05 1.9429e-05 2.7069e-06 2.1000e-05
1.9455e-05 2.7566e-06 1.4000e-05 1.9471e-05 2.1814e-06 2.1000e-05 1.9490e-05 2.1786e-06 1.4000e-05
1.9479e-05 1.6018e-06 2.1000e-05 1.9347e-05 1.6918e-06 1.4000e-05 1.9436e-05 9.8403e-07 2.1000e-05
1.9442e-05 9.1312e-07 1.4000e-05 1.9398e-05 2.9534e-07 2.1000e-05 1.9434e-05 0.0000e+00 2.0475e-05
1.9323e-05 0.0000e+00 1.9719e-05 1.9495e-05 0.0000e+00 1.8813e-05 1.9424e-05 0.0000e+00 1.8287e-05
1.9472e-05 0.0000e+00 1.7785e-05 1.9449e-05 0.0000e+00 1.7149e-05 1.9442e-05 0.0000e+00 1.6471e-05
1.9394e-05 0.0000e+00 1.5814e-05 1.9488e-05 0.0000e+00 1.5250e-05 1.9293e-05 0.0000e+00 1.4472e-05
1.8964e-05 7.0000e-06 2.0466e-05 1.8958e-05 7.0000e-06 1.9480e-05 1.8783e-05 7.0000e-06 1.8902e-05
1.8942e-05 7.0000e-06 1.8051e-05 1.8856e-05 7.0000e-06 1.7489e-05 1.8983e-05 7.0000e-06 1.6447e-05
1.8931e-05 7.0000e-06 1.5806e-05 1.8567e-05 7.0000e-06 1.5446e-05 1.8961e-05 7.0000e-06 1.4992e-05
1.8825e-05 7.0000e-06 1.4385e-05 1.8986e-05 6.7188e-06 1.4000e-05 1.8932e-05 6.4749e-06 2.1000e-05
[...]
CELL_DATA 26
FIELD FieldData 8
cell_id 1 26 int
0 1 2 3 4 5 6 7 8
9 10 11 12 13 14 15 16 17
18 19 20 21 22 23 24 25 
cell_type_id 1 26 int
0 0 0 0 0 0 0 0 0
0 0 0 0 0 0 0 0 0
0 0 0 0 0 0 0 0 
cell_area 1 26 float
2.871e-10 2.867e-10 2.864e-10 2.871e-10 2.859e-10 2.862e-10 2.861e-10 2.866e-10 2.864e-10
2.867e-10 2.859e-10 2.872e-10 2.865e-10 2.869e-10 2.871e-10 2.856e-10 2.864e-10 2.863e-10
2.859e-10 2.867e-10 2.864e-10 2.868e-10 2.878e-10 2.866e-10 2.865e-10 2.862e-10 
cell_volume 1 26 float
3.409e-16 3.408e-16 3.407e-16 3.410e-16 3.407e-16 3.405e-16 3.407e-16 3.407e-16 3.406e-16
3.408e-16 3.405e-16 3.410e-16 3.407e-16 3.409e-16 3.410e-16 3.406e-16 3.408e-16 3.407e-16
3.405e-16 3.409e-16 3.407e-16 3.409e-16 3.412e-16 3.409e-16 3.407e-16 3.406e-16 
cell_pressure 1 26 float
0.000e+00 0.000e+00 0.000e+00 0.000e+00 0.000e+00 0.000e+00 0.000e+00 0.000e+00 0.000e+00
0.000e+00 0.000e+00 0.000e+00 0.000e+00 0.000e+00 0.000e+00 0.000e+00 0.000e+00 0.000e+00
0.000e+00 0.000e+00 0.000e+00 0.000e+00 0.000e+00 0.000e+00 0.000e+00 0.000e+00 
cell_growth_rate 1 26 float
0.000e+00 0.000e+00 0.000e+00 0.000e+00 0.000e+00 0.000e+00 0.000e+00 0.000e+00 0.000e+00
0.000e+00 0.000e+00 0.000e+00 0.000e+00 0.000e+00 0.000e+00 0.000e+00 0.000e+00 0.000e+00
0.000e+00 0.000e+00 0.000e+00 0.000e+00 0.000e+00 0.000e+00 0.000e+00 0.000e+00 
cell_division_vol 1 26 float
4.000e-16 4.000e-16 4.000e-16 4.000e-16 4.000e-16 4.000e-16 4.000e-16 4.000e-16 4.000e-16
4.000e-16 4.000e-16 4.000e-16 4.000e-16 4.000e-16 4.000e-16 4.000e-16 4.000e-16 4.000e-16
4.000e-16 4.000e-16 4.000e-16 4.000e-16 4.000e-16 4.000e-16 4.000e-16 4.000e-16 
cell_is_static 1 26 int
0 0 0 0 0 0 0 0 0
0 0 0 0 0 0 0 0 0
0 0 0 0 0 0 0 0 