# vtk DataFile Version 4.2
vtk output
ASCII
DATASET UNSTRUCTURED_GRID
POINTS 11164 float
2.0102e-05 2.3829e-05 1.3530e-05 1.8574e-05 2.2596e-05 1.6930e-05 7.0311e-06 8.0800e-06 5.0164e-06
1.8131e-05 1.4076e-05 -2.5827e-06 1.9878e-05 2.3309e-05 5.7889e-06 1.8151e-05 1.9657e-05 2.0671e-05
2.0535e-05 3.6411e-06 2.2253e-05 2.0107e-05 2.3630e-05 1.4315e-05 1.9845e-05 2.3024e-05 5.0729e-06
1.9038e-05 2.1831e-05 2.8848e-06 1.8398e-05 2.1620e-05 2.6273e-06 2.2050e-05 1.3061e-05 2.3121e-05
1.4534e-05 5.8741e-06 -1.3676e-06 7.9086e-06 6.4484e-06 1.6929e-05 1.5066e-05 -2.2630e-06 8.4666e-06
2.0355e-05 2.2743e-05 4.5266e-06 2.5156e-05 1.2268e-05 1.9258e-05 2.0047e-05 5.6788e-06 -2.1686e-06
1.7844e-05 1.7503e-05 -1.0988e-06 1.8453e-05 2.0707e-05 1.9644e-05 2.0075e-05 2.3014e-05 1.6040e-05
1.8772e-05 2.5349e-06 2.1592e-05 2.1234e-05 4.2619e-06 -1.4097e-06 2.0285e-05 1.1138e-05 2.4147e-05
1.8007e-05 1.8299e-05 -6.0481e-07 1.9322e-05 2.1819e-05 1.8253e-05 1.7595e-05 1.4941e-05 2.3378e-05
1.8228e-05 2.0595e-05 1.3828e-06 2.3128e-05 2.2088e-05 1.0270e-05 1.8468e-05 2.2809e-05 4.6246e-06
2.6950e-05 1.2807e-05 6.7682e-06 1.8463e-05 3.0716e-07 1.5630e-06 2.2335e-05 -1.6473e-06 8.8785e-06
2.0565e-05 2.3337e-05 6.0292e-06 2.3242e-05 -7.6378e-07 1.2005e-05 1.8823e-05 2.0834e-05 1.6042e-06
2.4524e-05 1.4445e-05 1.9623e-05 1.7112e-05 1.9247e-05 2.6537e-07 1.9169e-05 2.0986e-05 1.9357e-05
2.4310e-05 7.0953e-06 2.0173e-05 1.9873e-05 2.2201e-05 1.7634e-05 2.0208e-05 2.1166e-05 2.0361e-06
2.1719e-05 3.0493e-06 -4.4992e-08 1.4754e-05 1.4804e-06 1.4010e-06 1.6970e-05 2.0522e-05 1.5309e-06
2.1108e-05 1.3253e-05 -2.6955e-06 2.4056e-05 2.0456e-05 1.3913e-05 2.0342e-05 1.4949e-05 -2.3196e-06
2.3184e-05 6.2669e-06 2.1379e-05 2.7462e-05 9.9018e-06 1.1976e-05 1.4026e-05 1.9861e-05 1.9056e-05
2.3250e-05 2.0962e-05 1.5406e-05 1.9009e-05 2.0493e-05 1.9909e-05 2.0171e-05 2.1648e-05 1.8446e-05
2.1897e-05 -2.4675e-07 3.6126e-06 2.3787e-05 6.1432e-07 6.5066e-06 2.2452e-05 3.9735e-06 2.1086e-05
2.0644e-05 4.6447e-06 2.2773e-05 1.4504e-05 2.0705e-05 1.8338e-05 1.6819e-05 1.1819e-05 -2.8164e-06
1.7820e-05 1.8995e-05 -6.1166e-08 1.9271e-05 2.0051e-05 2.0367e-05 1.4644e-05 1.9798e-05 1.6482e-06
2.0115e-05 2.1041e-05 1.9248e-05 1.9187e-05 2.1330e-05 2.1913e-06 1.0609e-05 1.0474e-06 5.9563e-06
1.8248e-05 1.9171e-05 2.1101e-05 2.2560e-05 1.1143e-05 -1.5949e-06 1.9903e-05 2.1807e-05 2.8645e-06
1.9685e-05 2.0141e-05 8.6773e-07 2.5371e-05 2.9065e-06 1.4049e-05 2.1256e-05 -2.5479e-06 1.3676e-05
2.1554e-05 1.6517e-06 2.0244e-05 2.0828e-05 4.1929e-06 2.2522e-05 1.8459e-05 1.8870e-05 -2.2392e-07
1.9489e-05 1.9540e-05 2.0837e-05 1.5693e-05 -2.1556e-06 1.3995e-05 2.5281e-05 8.2343e-06 2.3287e-06
2.0483e-05 1.9871e-05 6.7573e-07 2.2508e-05 3.1607e-06 2.0420e-05 2.0177e-05 1.9056e-05 2.1215e-05
2.4683e-05 2.0079e-05 1.0697e-05 2.5562e-05 1.8324e-05 8.5775e-06 2.3681e-05 1.3486e-06 1.6491e-05
2.2679e-05 2.1253e-05 1.6281e-05 2.1199e-05 2.1486e-05 1.8478e-05 2.6123e-05 1.2324e-05 3.9693e-06
1.9948e-05 1.8672e-05 -3.8047e-07 8.0766e-06 1.8084e-05 8.4558e-06 1.9132e-05 1.8090e-05 2.1954e-05
2.2328e-05 1.5942e-05 2.1831e-05 1.1640e-05 1.6341e-05 8.2642e-07 2.3991e-05 1.8195e-07 9.1678e-06
2.4519e-05 1.0311e-06 8.5353e-06 2.5317e-05 1.6521e-05 4.5545e-06 2.1429e-05 4.7244e-06 2.2700e-05
9.3382e-06 4.8002e-06 3.1503e-06 1.9624e-05 1.7821e-05 -9.8160e-07 2.2529e-05 1.8721e-05 1.9730e-05
1.4814e-05 4.1204e-07 2.5678e-06 2.1435e-05 5.7922e-06 2.3141e-05 2.5463e-05 7.4111e-06 2.9635e-06
2.1531e-05 1.8780e-05 3.7357e-07 2.5716e-05 4.7725e-06 1.5767e-05 2.5862e-05 6.3547e-06 4.4429e-06
2.1242e-05 2.3600e-05 1.3816e-05 2.4293e-05 1.7748e-05 3.4907e-06 1.3261e-05 2.0747e-05 3.7591e-06
2.3117e-05 2.0406e-05 1.6785e-05 1.9105e-05 1.7247e-05 -1.3290e-06 1.8285e-05 1.6524e-05 -1.6733e-06
1.9410e-05 1.6508e-05 2.2853e-05 2.0720e-05 5.2780e-06 2.3048e-05 2.3038e-05 1.4322e-05 -4.6474e-07
2.5872e-05 3.1861e-06 1.0084e-05 2.6328e-05 1.0464e-05 1.6994e-05 2.5227e-05 4.6475e-06 4.2480e-06
2.3754e-05 -2.0818e-07 1.1325e-05 2.1916e-05 1.7804e-05 7.2935e-08 1.9800e-05 1.7010e-05 -1.4506e-06
2.2142e-05 -8.8538e-07 5.4831e-06 2.2023e-05 2.0870e-05 1.8116e-05 2.2946e-05 2.1622e-05 1.4657e-05
1.0765e-05 6.1139e-06 8.3424e-07 2.0348e-05 1.6076e-05 2.3009e-05 2.6229e-05 7.1959e-06 4.8997e-06
2.5855e-05 6.0655e-06 1.6582e-05 1.9474e-05 1.5524e-05 2.3276e-05 2.6876e-05 1.3023e-05 1.4653e-05
2.4094e-05 2.0648e-05 8.2036e-06 2.6336e-05 1.3949e-05 1.5983e-05 2.4524e-05 8.1602e-07 1.0733e-05
2.2268e-05 -1.8300e-06 9.8910e-06 1.8447e-05 1.5971e-05 -1.9420e-06 1.7086e-05 1.5789e-05 -1.8581e-06
2.3161e-05 8.5099e-06 2.2021e-05 2.6387e-05 1.6094e-05 7.8324e-06 2.6357e-05 1.6292e-05 1.3172e-05
2.1319e-05 5.9630e-06 -2.1420e-06 2.0188e-05 1.3990e-05 2.3731e-05 2.4840e-05 1.3328e-05 1.9525e-05
2.6114e-05 3.7804e-06 1.1649e-05 1.9201e-05 1.5152e-05 -2.2930e-06 2.7343e-05 9.5546e-06 1.2943e-05
1.2455e-05 2.8985e-06 1.5279e-06 1.5536e-05 2.2717e-05 5.6372e-06 2.7384e-05 1.2556e-05 1.1589e-05
2.5897e-05 7.3804e-06 3.9343e-06 2.5838e-05 9.3219e-06 3.1952e-06 2.0282e-05 1.5254e-05 2.3334e-05
1.9771e-05 1.5394e-05 -2.1935e-06 1.9819e-05 1.4693e-05 2.3553e-05 2.2427e-05 2.2572e-05 7.9501e-06
2.2766e-05 2.0222e-05 1.7736e-05 2.6869e-05 8.1121e-06 6.5280e-06 2.6810e-05 6.3208e-06 8.0585e-06
2.6690e-05 1.1755e-05 1.5840e-05 2.7085e-05 7.1107e-06 8.7833e-06 2.2810e-05 1.9954e-06 1.8930e-05
2.0088e-05 -1.0077e-06 1.7747e-05 7.6269e-06 3.5632e-06 1.2016e-05 2.5338e-05 1.2755e-05 2.4233e-06
1.9187e-05 2.3539e-05 6.4017e-06 2.0861e-05 -2.7761e-06 1.2933e-05 1.0939e-05 5.5824e-06 9.4111e-07
2.6702e-05 7.7926e-06 1.5157e-05 1.9640e-05 1.4723e-05 -2.4347e-06 1.9384e-05 1.3994e-05 2.3764e-05
2.3577e-05 1.6907e-05 1.5634e-06 2.1234e-05 -9.7722e-07 1.7586e-05 1.8195e-05 1.9990e-05 7.6467e-07
2.7334e-05 9.8054e-06 8.1228e-06 2.3746e-05 1.7220e-06 4.2917e-06 1.6318e-05 2.7241e-06 -2.3709e-07
2.4858e-05 1.9380e-05 7.7937e-06 2.4866e-05 1.4048e-06 9.5003e-06 2.6128e-05 1.5650e-05 1.5202e-05
2.3607e-05 -3.1946e-08 1.3544e-05 2.7123e-05 1.3373e-05 1.3076e-05 2.7139e-05 1.3905e-05 1.2077e-05
2.5652e-05 8.1102e-06 1.8127e-05 2.4723e-05 1.5248e-06 1.3424e-05 2.4685e-05 5.1144e-06 2.7199e-06
2.0379e-05 1.5584e-05 -2.0789e-06 1.9513e-05 1.3967e-05 -2.6592e-06 2.6843e-05 1.3990e-05 1.4034e-05
2.6280e-05 5.7678e-06 6.2383e-06 2.5739e-05 3.3004e-06 1.3116e-05 2.6915e-05 1.0879e-05 1.5205e-05
2.2823e-05 2.2150e-05 1.3212e-05 2.7145e-05 1.2429e-05 1.3739e-05 2.4639e-05 5.3500e-06 1.8736e-05
1.6626e-05 1.6559e-05 2.2533e-05 2.5514e-05 1.3666e-05 3.0813e-06 2.5079e-05 9.3313e-06 1.9480e-05
2.6747e-05 1.3925e-05 6.7032e-06 2.4811e-05 1.2456e-05 1.4367e-06 2.4369e-05 2.0427e-05 1.2136e-05
2.3458e-05 6.2826e-07 5.4748e-06 2.6041e-05 8.3935e-06 1.7350e-05 2.4305e-05 1.8735e-05 1.6565e-05
2.5688e-05 1.3261e-05 1.7951e-05 1.4985e-05 1.1651e-06 1.9492e-05 2.7392e-05 1.2047e-05 9.0385e-06
1.3529e-05 2.0314e-05 1.8179e-05 2.7485e-05 1.0853e-05 1.1791e-05 2.3373e-05 1.5909e-05 2.0591e-05
2.2987e-05 1.9320e-05 2.7907e-06 2.3538e-05 3.6745e-06 1.9366e-05 2.6901e-05 1.4536e-05 1.2988e-05
2.5458e-05 6.4820e-06 3.4072e-06 2.7520e-05 1.0994e-05 1.0331e-05 2.5465e-05 1.8750e-05 1.1170e-05
1.7083e-05 1.9183e-05 2.0909e-05 1.9677e-05 1.0554e-05 2.4194e-05 2.1725e-05 2.2902e-05 1.4575e-05
2.1839e-05 1.1506e-05 2.3474e-05 2.4651e-05 1.0699e-05 2.0244e-05 2.6400e-05 8.7652e-06 1.6544e-05
1.7924e-05 2.1864e-05 1.8070e-05 2.2094e-05 2.3054e-05 1.1907e-05 2.6768e-05 9.9323e-06 1.5686e-05
1.9036e-05 1.6545e-05 -1.7017e-06 2.7010e-05 1.4094e-05 8.3259e-06 2.7141e-05 1.0376e-05 1.4275e-05
1.5557e-05 1.7140e-05 2.1927e-05 2.1924e-05 2.2715e-05 6.5368e-06 1.9093e-05 4.6905e-06 -1.7714e-06
1.5617e-05 3.7647e-06 2.1823e-05 1.6204e-05 2.2559e-05 1.6267e-05 1.3815e-05 1.8069e-05 2.0566e-05
2.6014e-05 1.5781e-05 5.7949e-06 2.0065e-05 9.8082e-06 -3.0534e-06 2.6994e-05 8.5958e-06 1.4434e-05
1.2816e-05 9.3938e-07 1.7787e-05 2.7518e-05 1.0094e-05 1.0964e-05 2.6867e-05 1.5253e-05 1.1307e-05
2.1010e-05 1.8307e-05 -5.1041e-07 2.4026e-05 1.3748e-05 6.0920e-07 2.3362e-05 5.9094e-06 2.1391e-07
1.6431e-05 2.0137e-05 1.2699e-06 1.9579e-05 9.7458e-06 2.4176e-05 2.0399e-05 1.0177e-05 2.4149e-05
2.3291e-05 1.7317e-05 1.9809e-05 2.4846e-05 1.3513e-05 1.7860e-06 2.5425e-05 2.2880e-06 1.0570e-05
1.8450e-05 2.3035e-05 1.6000e-05 2.7280e-05 8.4463e-06 1.2648e-05 2.5522e-05 1.8596e-05 9.5990e-06
1.9895e-05 -1.4333e-06 1.7019e-05 2.6425e-05 5.9470e-06 1.4619e-05 2.2723e-05 9.5727e-07 3.2965e-06
1.4984e-05 4.1449e-06 2.1823e-05 2.0017e-05 1.2094e-05 2.4090e-05 2.7373e-05 8.4362e-06 1.1529e-05
2.4124e-05 3.5744e-07 1.2133e-05 2.0651e-05 2.1989e-05 1.7862e-05 1.1900e-05 1.9813e-05 3.7577e-06
2.3938e-05 5.8082e-06 2.0148e-05 2.3688e-05 1.9537e-05 1.6858e-05 2.1998e-05 1.2627e-06 1.9311e-05
2.3775e-05 1.2255e-05 2.1326e-05 2.5523e-05 1.5126e-05 3.8950e-06 2.7023e-05 6.5894e-06 1.1842e-05
2.3221e-05 2.0718e-05 5.2577e-06 1.9822e-05 1.3120e-05 2.3946e-05 2.6984e-05 6.2747e-06 1.0155e-05
2.6099e-05 6.0637e-06 5.3323e-06 2.6433e-05 1.5026e-05 6.4881e-06 2.6199e-05 7.7415e-06 1.6693e-05
2.6202e-05 4.2385e-06 8.5272e-06 2.3999e-05 3.3093e-06 2.9299e-06 1.7185e-05 1.8587e-05 -2.7321e-07
1.2575e-05 1.4436e-05 -6.9192e-07 2.0049e-05 7.6729e-06 -2.7611e-06 2.6992e-05 7.7930e-06 7.3175e-06
1.4350e-05 1.9561e-05 1.9559e-05 2.3718e-05 2.0078e-05 1.5913e-05 2.6697e-05 1.5727e-05 9.3984e-06
2.1830e-05 1.8814e-05 2.0530e-05 2.5619e-05 1.5002e-05 1.7207e-05 2.4829e-05 1.8699e-05 6.0828e-06
2.1305e-05 6.7582e-06 2.3487e-05 2.3841e-05 2.4518e-06 3.5383e-06 1.7144e-05 -1.0882e-06 1.7344e-05
1.9578e-05 6.8634e-06 -2.5801e-06 1.8408e-05 6.9397e-06 2.3689e-05 2.3195e-05 1.3020e-05 2.1895e-05
2.5406e-05 5.5650e-06 3.8982e-06 2.5864e-05 4.3654e-06 1.4723e-05 2.6513e-05 4.8473e-06 1.1865e-05
2.4960e-05 2.4279e-06 6.5323e-06 2.7302e-05 1.0918e-05 7.8300e-06 2.6441e-05 6.8147e-06 5.8262e-06
2.6364e-05 1.6808e-05 1.0513e-05 1.6927e-05 -1.5885e-06 1.6316e-05 2.5477e-05 1.6397e-05 1.6395e-05
[...]
CELL_DATA 2
FIELD FieldData 8
cell_id 1 2 int
0 1 
cell_type_id 1 2 int
0 0 
cell_area 1 2 float
2.032e-09 2.649e-09 
cell_volume 1 2 float
8.374e-15 8.766e-15 
cell_pressure 1 2 float
2.494e+02 1.349e+02 
cell_growth_rate 1 2 float
0.000e+00 0.000e+00 
cell_division_vol 1 2 float
1.000e+20 1.000e+20 
cell_is_static 1 2 int
0 0 