# vtk DataFile Version 4.2
vtk output
ASCII
DATASET UNSTRUCTURED_GRID
POINTS 2832 float
9.13112e-06 2.852e-06 5.36793e-06 9.11546e-06 2.66999e-06 5.39027e-06 9.32621e-06 2.73369e-06 5.34496e-06 
9.01962e-06 3.04563e-06 5.35213e-06 8.90262e-06 2.51871e-06 5.42558e-06 9.16653e-06 3.29187e-06 5.26602e-06 
8.77166e-06 3.02797e-06 5.37664e-06 9.78703e-06 2.50524e-06 5.20868e-06 9.89317e-06 2.79668e-06 5.13987e-06 
9.94207e-06 3.11231e-06 5.05526e-06 8.8428e-06 3.28208e-06 5.31221e-06 8.51757e-06 2.67515e-06 5.42719e-06 
8.95173e-06 2.24734e-06 5.41707e-06 9.62768e-06 3.53946e-06 5.0474e-06 9.35004e-06 3.51889e-06 5.14487e-06 
9.06018e-06 3.53907e-06 5.19773e-06 9.9024e-06 2.25615e-06 5.15394e-06 1.00964e-05 2.52524e-06 5.06009e-06 
1.02168e-05 2.88088e-06 4.95296e-06 1.01987e-05 3.28565e-06 4.85669e-06 8.77465e-06 3.59708e-06 5.20299e-06 
8.47115e-06 2.27563e-06 5.43086e-06 9.46528e-06 1.96298e-06 5.28334e-06 1.00015e-05 3.70076e-06 4.78943e-06 
9.53196e-06 3.72706e-06 4.99581e-06 9.29766e-06 3.74693e-06 5.0565e-06 8.31673e-06 3.06042e-06 5.35662e-06 
8.16609e-06 2.57744e-06 5.39848e-06 8.72125e-06 1.98407e-06 5.40141e-06 9.71406e-06 1.77658e-06 5.1593e-06 
1.02191e-05 2.20676e-06 4.9774e-06 1.03795e-05 2.42046e-06 4.87917e-06 1.05361e-05 2.82994e-06 4.72817e-06 
8.74935e-06 3.90992e-06 5.0505e-06 8.53891e-06 3.77945e-06 5.12116e-06 8.80855e-06 2.75279e-06 5.41965e-06 
8.2101e-06 2.37983e-06 5.40869e-06 9.01752e-06 3.78204e-06 5.09368e-06 8.24693e-06 2.12623e-06 5.39722e-06 
8.46201e-06 1.9704e-06 5.39882e-06 8.72185e-06 1.77413e-06 5.36398e-06 9.50566e-06 1.62839e-06 5.19469e-06 
1.00449e-05 1.88346e-06 5.0322e-06 1.03456e-05 1.97977e-06 4.85935e-06 1.06335e-05 3.09293e-06 4.57806e-06 
1.01996e-05 3.66976e-06 4.68635e-06 9.69852e-06 3.95069e-06 4.80194e-06 9.76147e-06 1.46971e-06 5.04522e-06 
1.03192e-05 1.75344e-06 4.82384e-06 1.05305e-05 2.18589e-06 4.75306e-06 1.0639e-05 2.49798e-06 4.67378e-06 
1.05717e-05 3.36995e-06 4.5335e-06 9.99447e-06 3.88771e-06 4.68635e-06 8.2893e-06 3.92424e-06 5.02142e-06 
8.07285e-06 3.77078e-06 5.06509e-06 7.98945e-06 3.5497e-06 5.15105e-06 7.83226e-06 3.3917e-06 5.16715e-06 
7.90792e-06 2.51866e-06 5.35064e-06 8.44555e-06 1.64837e-06 5.32911e-06 8.73271e-06 1.48198e-06 5.28253e-06 
9.04888e-06 1.42474e-06 5.23249e-06 9.33509e-06 1.35212e-06 5.14664e-06 9.57735e-06 1.32528e-06 5.05965e-06 
9.99805e-06 1.32787e-06 4.86985e-06 1.05252e-05 1.86311e-06 4.6969e-06 9.90281e-06 4.0864e-06 4.60101e-06 
9.61438e-06 4.20429e-06 4.65962e-06 8.59911e-06 4.3739e-06 4.73057e-06 7.85235e-06 3.0843e-06 5.26393e-06 
7.72258e-06 2.29007e-06 5.29429e-06 8.18085e-06 1.58326e-06 5.2777e-06 9.7846e-06 1.17929e-06 4.90729e-06 
9.98399e-06 1.11111e-06 4.76561e-06 1.04766e-05 1.59535e-06 4.65246e-06 1.02038e-05 4.02661e-06 4.44991e-06 
8.14634e-06 4.17462e-06 4.83668e-06 7.66907e-06 3.66028e-06 5.00313e-06 7.59023e-06 3.0621e-06 5.18016e-06 
7.55871e-06 2.61017e-06 5.23503e-06 7.85661e-06 1.95533e-06 5.29772e-06 8.48909e-06 1.3005e-06 5.2117e-06 
8.71515e-06 1.15619e-06 5.14891e-06 9.16384e-06 1.08766e-06 5.06754e-06 1.02135e-05 1.17262e-06 4.65528e-06 
1.04051e-05 1.33734e-06 4.59574e-06 7.59128e-06 3.36414e-06 5.09687e-06 7.36431e-06 2.9241e-06 5.11529e-06 
7.26615e-06 2.67982e-06 5.09663e-06 7.70301e-06 1.70227e-06 5.19294e-06 9.33941e-06 8.51826e-07 4.88529e-06 
1.08167e-05 2.44301e-06 4.49859e-06 6.39341e-06 1.90432e-06 5.09717e-07 7.96623e-06 4.36271e-06 4.64046e-06 
7.55597e-06 3.92639e-06 4.81077e-06 7.4132e-06 3.69239e-06 4.87751e-06 7.34125e-06 3.50787e-06 4.92412e-06 
7.36211e-06 3.24483e-06 5.03339e-06 7.40755e-06 2.40529e-06 5.17643e-06 7.54486e-06 2.10681e-06 5.21488e-06 
7.70722e-06 1.50464e-06 5.13498e-06 7.98942e-06 1.39778e-06 5.17888e-06 8.22259e-06 1.12355e-06 5.10562e-06 
8.52119e-06 9.84494e-07 5.06144e-06 8.84906e-06 9.2826e-07 5.02389e-06 9.08633e-06 7.4968e-07 4.87841e-06 
9.58359e-06 8.18227e-07 4.78025e-06 1.06953e-05 1.97131e-06 4.5692e-06 9.61764e-06 2.69228e-06 5.26116e-06 
1.07603e-05 2.22097e-06 4.54688e-06 1.06899e-05 3.59697e-06 4.29818e-06 7.24106e-06 3.8396e-06 4.69253e-06 
7.1177e-06 3.13368e-06 4.93302e-06 7.02496e-06 2.80551e-06 4.94683e-06 7.26402e-06 2.18262e-06 5.09405e-06 
7.91709e-06 1.19271e-06 5.07095e-06 8.866e-06 6.73638e-07 4.85338e-06 9.84972e-06 7.24413e-07 4.58296e-06 
1.09547e-05 2.25416e-06 4.33467e-06 1.09429e-05 3.30426e-06 4.15362e-06 9.90261e-06 4.3329e-06 4.39442e-06 
9.04836e-06 4.52298e-06 4.55843e-06 1.04076e-05 3.4239e-06 4.64883e-06 7.49825e-06 4.20425e-06 4.58344e-06 
7.30388e-06 4.00149e-06 4.62823e-06 7.0107e-06 2.16111e-06 4.94685e-06 7.44649e-06 1.57497e-06 5.05577e-06 
7.98293e-06 9.47902e-07 4.96051e-06 9.6726e-06 5.74987e-07 4.5527e-06 8.07144e-06 3.24244e-06 5.27379e-06 
1.01066e-05 7.11411e-07 4.40237e-06 1.10637e-05 3.00359e-06 4.10812e-06 1.08752e-05 3.61627e-06 4.05004e-06 
9.59096e-06 4.4433e-06 4.45815e-06 8.87589e-06 4.69093e-06 4.40513e-06 7.93983e-06 4.54971e-06 4.45652e-06 
7.00383e-06 3.61519e-06 4.6639e-06 6.93746e-06 3.34395e-06 4.74103e-06 7.25749e-06 1.88406e-06 5.04933e-06 
7.19214e-06 1.55928e-06 4.91741e-06 7.47304e-06 1.31127e-06 4.9664e-06 1.03048e-05 7.95668e-07 4.31441e-06 
1.11697e-05 2.69473e-06 4.0277e-06 1.12245e-05 2.9864e-06 3.85155e-06 1.11563e-05 3.21796e-06 3.86895e-06 
9.60189e-06 2.98277e-06 5.22841e-06 1.10565e-05 3.48878e-06 3.86749e-06 1.07292e-05 3.87608e-06 4.03842e-06 
9.15047e-06 4.69016e-06 4.35459e-06 9.42032e-06 3.99996e-06 4.87829e-06 7.0583e-06 3.9511e-06 4.50128e-06 
6.74801e-06 3.31787e-06 4.59862e-06 6.62806e-06 2.56914e-06 4.66444e-06 7.789e-06 7.84288e-07 4.79596e-06 
1.11041e-05 2.0672e-06 4.10709e-06 1.1251e-05 2.28686e-06 3.8997e-06 1.05775e-05 4.0962e-06 4.01649e-06 
1.0338e-05 4.2076e-06 4.16779e-06 9.81117e-06 4.57017e-06 4.19543e-06 8.91526e-06 4.871e-06 4.17403e-06 
8.62589e-06 4.79669e-06 4.29556e-06 1.04631e-05 1.03814e-06 4.36886e-06 7.99941e-06 4.72403e-06 4.27762e-06 
6.84057e-06 3.60922e-06 4.54061e-06 6.63995e-06 2.35777e-06 4.67742e-06 6.78686e-06 2.15545e-06 4.78608e-06 
7.06117e-06 1.29777e-06 4.72642e-06 7.27138e-06 8.99067e-07 4.62407e-06 1.12706e-05 2.10473e-06 3.83293e-06 
1.13845e-05 2.3072e-06 3.63546e-06 1.13058e-05 2.5289e-06 3.8055e-06 1.14454e-05 2.55074e-06 3.48996e-06 
1.1337e-05 2.78786e-06 3.69977e-06 1.13212e-05 3.12372e-06 3.59239e-06 1.12136e-05 3.41658e-06 3.62407e-06 
1.11077e-05 3.63615e-06 3.64449e-06 1.07862e-05 4.02492e-06 3.80225e-06 9.70724e-06 4.76364e-06 4.00226e-06 
9.21725e-06 4.86506e-06 4.10648e-06 7.86527e-06 4.83741e-06 4.06817e-06 7.22993e-06 4.22943e-06 4.39625e-06 
7.87021e-06 5.15655e-07 4.61314e-06 9.33735e-06 6.2047e-07 4.72155e-06 1.11039e-05 1.44359e-06 3.82449e-06 
1.10677e-05 3.81455e-06 3.53087e-06 1.01013e-05 4.46964e-06 4.09334e-06 9.51271e-06 4.88374e-06 3.94158e-06 
9.00733e-06 5.02836e-06 3.90958e-06 9.03163e-06 4.64474e-07 4.66504e-06 7.60958e-06 4.63217e-06 4.21882e-06 
7.40494e-06 4.38551e-06 4.36434e-06 6.79784e-06 1.47784e-06 4.60931e-06 7.05323e-06 1.02304e-06 4.56048e-06 
7.34902e-06 7.02035e-07 4.52033e-06 7.58322e-06 5.9201e-07 4.55945e-06 1.00103e-05 5.10887e-07 4.28859e-06 
1.12165e-05 1.78868e-06 3.83217e-06 1.13835e-05 2.05673e-06 3.58489e-06 1.14637e-05 2.83948e-06 3.36631e-06 
1.13532e-05 3.3142e-06 3.36377e-06 1.1239e-05 3.60546e-06 3.37477e-06 1.09133e-05 4.0555e-06 3.5404e-06 
9.29307e-06 5.02836e-06 3.8063e-06 8.27762e-06 5.04846e-06 3.87478e-06 7.99762e-06 5.0129e-06 3.84393e-06 
7.16806e-06 4.36336e-06 4.21334e-06 8.18778e-06 4.09965e-07 4.60497e-06 9.302e-06 3.69065e-07 4.51119e-06 
1.12481e-05 1.5155e-06 3.59259e-06 1.14727e-05 2.00012e-06 3.3147e-06 1.14806e-05 3.07212e-06 3.15622e-06 
1.13966e-05 3.37858e-06 3.14948e-06 1.07606e-05 4.31111e-06 3.43377e-06 7.20246e-06 3.67576e-06 4.76615e-06 
9.97699e-06 4.71348e-06 3.86928e-06 9.60528e-06 5.01585e-06 3.63425e-06 8.72017e-06 4.70695e-07 4.70356e-06 
9.05764e-06 5.16074e-06 3.63067e-06 7.86576e-06 5.06976e-06 3.66014e-06 7.48694e-06 4.83768e-06 3.82239e-06 
7.31365e-06 4.5223e-06 4.14701e-06 6.61917e-06 3.42996e-06 4.43174e-06 6.48232e-06 2.44456e-06 4.52987e-06 
8.21049e-06 2.44497e-07 4.44024e-06 8.49201e-06 3.22566e-07 4.56315e-06 8.88268e-06 2.50474e-07 4.48344e-06 
8.94935e-06 6.48365e-08 4.24426e-06 9.47751e-06 2.07158e-07 4.26096e-06 1.13566e-05 1.79714e-06 3.52986e-06 
8.91115e-06 1.20411e-06 5.1583e-06 1.14918e-05 2.29151e-06 3.35398e-06 8.96756e-06 1.70867e-06 5.33051e-06 
6.96706e-06 5.24027e-07 4.03265e-06 1.15396e-05 2.55997e-06 3.19235e-06 1.05082e-05 5.44075e-07 3.82497e-06 
1.12982e-05 3.66314e-06 3.09105e-06 1.11253e-05 3.89035e-06 3.28184e-06 1.09486e-05 4.1407e-06 3.30711e-06 
1.02888e-05 4.48483e-06 3.88829e-06 9.34698e-06 5.1512e-06 3.50934e-06 8.88717e-06 5.26207e-06 3.42466e-06 
6.5499e-06 3.60393e-06 4.25388e-06 6.34283e-06 2.56812e-06 4.37037e-06 7.04878e-06 7.87051e-07 4.3821e-06 
7.9365e-06 3.09452e-07 4.43576e-06 9.19798e-06 1.42172e-07 4.28792e-06 1.00563e-05 3.04694e-07 4.00036e-06 
1.13405e-05 1.57739e-06 3.40975e-06 1.15614e-05 2.79919e-06 3.01448e-06 1.10581e-05 4.09361e-06 3.06533e-06 
1.01302e-05 4.73708e-06 3.65891e-06 9.60616e-06 5.11144e-06 3.40097e-06 9.08779e-06 5.26394e-06 3.34742e-06 
8.67159e-06 5.27922e-06 3.4108e-06 6.71524e-06 1.82255e-06 4.66366e-06 8.48029e-06 5.27571e-06 3.40834e-06 
7.56971e-06 5.00679e-06 3.57893e-06 8.71124e-06 4.99288e-06 4.01342e-06 7.22123e-06 4.80394e-06 3.63216e-06 
7.33397e-06 4.72924e-06 3.88548e-06 7.07755e-06 4.45903e-06 4.02313e-06 6.23483e-06 3.14207e-06 4.09691e-06 
9.74684e-06 2.05309e-06 5.19812e-06 6.2191e-06 2.85961e-06 4.1737e-06 1.04261e-05 3.70413e-06 4.48863e-06 
6.31351e-06 2.25484e-06 4.33455e-06 8.46863e-06 1.60343e-07 4.3872e-06 9.34144e-06 1.26377e-08 4.0573e-06 
1.02646e-05 4.5677e-07 4.00116e-06 1.11258e-05 1.11878e-06 3.46898e-06 1.12677e-05 1.36508e-06 3.40257e-06 
1.1511e-05 1.84941e-06 3.06783e-06 1.15463e-05 2.12306e-06 3.10025e-06 1.16106e-05 2.51253e-06 2.84504e-06 
[...]
CELL_DATA 2
FIELD FieldData 4
Cell_id 1 2 int
0 1
METADATA
INFORMATION 0

Cell_pressure 1 2 double
46.428649867 46.428649867 
METADATA
INFORMATION 0

Cell_type_id 1 2 int
0 1
METADATA
INFORMATION 0

Cell_volume 1 2 double
3.3524248669e-16 3.3524248669e-16 
METADATA
INFORMATION 0

POINT_DATA 2832
NORMALS normals float
0.16066 0.139822 0.977056 0.150322 0.0743407 0.985838 0.235659 0.098567 0.966824 
0.126559 0.201165 0.971347 0.0997911 0.0254194 0.994684 0.179228 0.285643 0.941427 
0.0444702 0.197195 0.979355 0.377388 0.0234193 0.925759 0.416653 0.117965 0.901379 
0.434917 0.227026 0.871382 0.0690502 0.286615 0.955554 -0.0318683 0.0819006 0.996131 
0.102 -0.0573602 0.993129 0.336378 0.359189 0.870536 0.240574 0.360451 0.901221 
0.144343 0.368318 0.918426 0.422993 -0.0643611 0.903844 0.491971 0.0291248 0.870124 
0.528649 0.151579 0.835197 0.521868 0.283107 0.804676 0.0497115 0.393878 0.917817 
-0.0584319 -0.0572813 0.996647 0.284254 -0.160969 0.945139 0.450667 0.41961 0.787926 
0.301215 0.434594 0.848762 0.213186 0.440644 0.872 -0.108641 0.211262 0.971373 
-0.155031 0.0494456 0.986671 0.0260482 -0.153192 0.987853 0.366212 -0.222834 0.903457 
0.529966 -0.0777074 0.844451 0.580981 -0.00899702 0.813867 0.629816 0.132252 0.765403 
0.0369032 0.49318 0.869144 -0.0349733 0.448257 0.89322 0.0650935 0.109678 0.991833 
-0.141803 -0.0223851 0.989642 0.1232 0.455186 0.881832 -0.123966 -0.101492 0.987082 
-0.0498693 -0.154327 0.98676 0.0275836 -0.216638 0.975862 0.287234 -0.274344 0.917732 
0.472232 -0.185345 0.861768 0.567912 -0.154306 0.808496 0.661943 0.213358 0.718547 
0.51606 0.404513 0.755017 0.358639 0.502825 0.786477 0.375262 -0.324166 0.868386 
0.561026 -0.2267 0.796151 0.627852 -0.0890706 0.77322 0.660446 0.0200457 0.750606 
0.641933 0.308516 0.701954 0.446394 0.479129 0.755756 -0.122828 0.493306 0.86114 
-0.184652 0.450019 0.87372 -0.212123 0.374441 0.902661 -0.267993 0.317611 0.909562 
-0.242993 0.0265609 0.969664 -0.0660113 -0.270683 0.960403 0.0382564 -0.326736 0.944341 
0.140522 -0.343085 0.928734 0.234401 -0.361797 0.902308 0.315875 -0.367098 0.874907 
0.450948 -0.368666 0.812854 0.626811 -0.192631 0.754984 0.417639 0.549528 0.7236 
0.333675 0.585003 0.73921 -0.00997945 0.632627 0.774392 -0.26522 0.218251 0.939162 
-0.306997 -0.0478713 0.950506 -0.153793 -0.286425 0.945679 0.38226 -0.411308 0.827468 
0.451089 -0.441334 0.775721 0.61031 -0.284685 0.73924 0.515391 0.529325 0.673934 
-0.166134 0.575131 0.801014 -0.315104 0.403167 0.859166 -0.351838 0.213829 0.911311 
-0.36026 0.0567166 0.931126 -0.271565 -0.162806 0.94855 -0.0483104 -0.382518 0.922684 
0.0251466 -0.423295 0.905643 0.174033 -0.451529 0.875119 0.524424 -0.414299 0.743866 
0.588239 -0.366435 0.720902 -0.349949 0.312464 0.88312 -0.42207 0.159459 0.892429 
-0.452026 0.0717126 0.889117 -0.314236 -0.242688 0.917801 0.232719 -0.526003 0.818024 
0.731112 0.00606823 0.682231 -0.7506 -0.181528 -0.635332 -0.223236 0.635604 0.739035 
-0.353964 0.496865 0.792361 -0.407218 0.423665 0.809124 -0.430076 0.351619 0.831504 
-0.42566 0.269062 0.863956 -0.411308 -0.014096 0.911387 -0.371869 -0.11341 0.921332 
-0.309002 -0.314809 0.897448 -0.214898 -0.349769 0.911856 -0.140074 -0.435632 0.889159 
-0.0366066 -0.481958 0.875429 0.0689211 -0.50259 0.861773 0.152867 -0.560417 0.813981 
0.315795 -0.542782 0.778242 0.681851 -0.154485 0.714992 0.328272 0.0852314 0.94073 
0.707516 -0.0739721 0.702815 0.686742 0.382297 0.618251 -0.462467 0.463437 0.755877 
-0.507069 0.234617 0.829359 -0.53412 0.119903 0.836863 -0.457174 -0.0803956 0.885736 
-0.241005 -0.421122 0.874399 0.0750346 -0.590899 0.803248 0.410995 -0.566879 0.713954 
0.773614 -0.0592711 0.630879 0.768562 0.288338 0.571115 0.423738 0.626805 0.653882 
0.137857 0.693893 0.706759 0.584135 0.328821 0.742066 -0.378114 0.58341 0.718792 
-0.43602 0.514483 0.738372 -0.536749 -0.089281 0.839005 -0.396431 -0.28331 0.873257 
-0.215904 -0.498453 0.839601 0.336998 -0.622317 0.706509 -0.187962 0.269776 0.9444 
0.491851 -0.574133 0.654563 0.810246 0.187503 0.555287 0.748547 0.392157 0.534687 
0.317068 0.66758 0.67365 0.0808963 0.752018 0.65416 -0.229177 0.699875 0.6765 
-0.537284 0.389801 0.747918 -0.563674 0.30667 0.766959 -0.463067 -0.185933 0.866601 
-0.478957 -0.294694 0.826895 -0.384583 -0.380739 0.840912 0.554236 -0.541799 0.631883 
0.843456 0.0907424 0.529479 0.861557 0.177987 0.475437 0.838421 0.260017 0.479001 
0.325894 0.183995 0.927329 0.805228 0.352412 0.476879 0.699854 0.473445 0.534841 
0.171797 0.752675 0.635583 0.266757 0.519545 0.811735 -0.526197 0.49132 0.694062 
-0.624054 0.289878 0.725622 -0.667192 0.0455377 0.743492 -0.28355 -0.554384 0.782469 
0.825406 -0.121019 0.551415 0.872465 -0.0526896 0.485827 0.650777 0.55358 0.519652 
0.56405 0.596968 0.570506 0.389571 0.712545 0.583535 0.0969642 0.807023 0.582505 
0.00573628 0.789132 0.614197 0.609037 -0.454959 0.649682 -0.208073 0.763571 0.611281 
-0.594543 0.383283 0.706833 -0.661914 -0.0275905 0.749072 -0.617583 -0.0976677 0.780418 
-0.525393 -0.370963 0.765734 -0.453803 -0.510066 0.730682 0.879401 -0.110441 0.463094 
0.911972 -0.0447225 0.407808 0.888632 0.0251907 0.457928 0.933126 0.038397 0.357494 
0.899156 0.118265 0.421345 0.89457 0.223715 0.386905 0.859256 0.323285 0.396442 
0.824566 0.397689 0.40241 0.715308 0.52634 0.459675 0.357232 0.771825 0.525996 
0.197059 0.809988 0.552347 -0.250858 0.800791 0.543879 -0.466587 0.590033 0.658906 
-0.253763 -0.640491 0.724828 0.234113 -0.603496 0.762222 0.82253 -0.328438 0.464298 
0.811517 0.455967 0.365423 0.482464 0.672423 0.561316 0.293205 0.813938 0.501533 
0.122714 0.861973 0.491877 0.13264 -0.646244 0.751515 -0.333467 0.732889 0.593021 
-0.408221 0.651165 0.639796 -0.612541 -0.319467 0.723004 -0.528854 -0.465069 0.709946 
-0.430375 -0.575837 0.695118 -0.353004 -0.610719 0.708809 0.449346 -0.644072 0.61908 
0.857378 -0.215821 0.467252 0.914143 -0.129053 0.384302 0.939572 0.139864 0.312478 
0.905594 0.286138 0.31309 0.866399 0.386271 0.31646 0.759421 0.534741 0.370583 
0.219991 0.862869 0.45504 -0.120289 0.870491 0.477259 -0.211031 0.855222 0.473352 
-0.481223 0.643534 0.595221 -0.153142 -0.673837 0.722836 0.228344 -0.689123 0.687727 
0.869323 -0.304026 0.389673 0.943501 -0.150759 0.295089 0.942812 0.216982 0.25303 
0.920646 0.31163 0.235156 0.712544 0.619362 0.329655 -0.481394 0.412619 0.773308 
0.443736 0.755823 0.481487 0.31504 0.856351 0.409162 0.0268168 -0.651326 0.758324 
0.143394 0.906479 0.397157 -0.254208 0.875652 0.410624 -0.377705 0.809959 0.44867 
-0.439965 0.694047 0.569851 -0.673105 0.326718 0.663464 -0.716705 0.00310876 0.697369 
-0.138478 -0.731901 0.667192 -0.0515054 -0.702864 0.709457 0.0784813 -0.732996 0.67569 
0.106855 -0.788723 0.60539 0.283665 -0.745245 0.603443 0.90774 -0.215962 0.359679 
0.089937 -0.409226 0.90799 0.95129 -0.052431 0.303806 0.118303 -0.249873 0.961024 
-0.566042 -0.635112 0.525574 0.967035 0.0397647 0.251518 0.631372 -0.626488 0.457037 
0.888762 0.406976 0.210883 0.827232 0.488221 0.278077 0.772196 0.569089 0.28258 
0.549293 0.687487 0.475014 0.234269 0.903555 0.358756 0.0844473 0.938815 0.333908 
-0.696472 0.387594 0.603902 -0.76642 0.0461716 0.640678 -0.525109 -0.546309 0.652539 
-0.22791 -0.714879 0.661063 0.181738 -0.768829 0.613085 0.460289 -0.713686 0.528003 
0.90436 -0.280728 0.321442 0.973538 0.124227 0.19181 0.805042 0.553549 0.213287 
0.501479 0.763094 0.407684 0.317349 0.894469 0.314983 0.15275 0.940779 0.30266 
0.0170473 0.945124 0.326267 -0.637905 -0.203758 0.742671 -0.0544078 0.944415 0.324222 
-0.354394 0.849628 0.39056 0.0286575 0.852815 0.521426 -0.46682 0.794001 0.389412 
-0.425817 0.764866 0.483383 -0.512652 0.672194 0.534175 -0.79697 0.23662 0.555742 
0.36897 -0.132712 0.919918 -0.801228 0.134886 0.582958 0.598567 0.41439 0.685564 
-0.775322 -0.0549896 0.629168 -0.055866 -0.76439 0.642329 0.231572 -0.804888 0.546378 
0.542152 -0.661992 0.51753 0.832874 -0.437635 0.338816 0.875083 -0.358958 0.324621 
0.957163 -0.194407 0.214581 0.970283 -0.104476 0.218254 0.989367 0.01954 0.144122 
-0.060011 0.840376 0.538671 0.990232 0.0925879 0.104249 0.933511 0.330378 0.139312 
0.897545 0.428749 0.102896 0.853136 0.494783 0.165376 0.631781 0.670179 0.389502 
0.419649 0.832081 0.362678 0.30472 0.919776 0.247302 0.159348 0.962569 0.219248 
-0.0133384 0.973396 0.228742 0.0300622 0.575699 0.817109 -0.23488 0.917413 0.321224 
-0.690797 0.451344 0.564878 -0.745467 0.388286 0.541769 -0.811831 0.0318641 0.583022 
-0.113982 0.404124 0.907575 -0.703409 -0.269814 0.657583 -0.662493 -0.37597 0.64788 
-0.280366 -0.758269 0.588577 -0.174825 -0.795038 0.580819 0.00559611 -0.852436 0.522802 
0.310139 -0.797104 0.518111 0.39445 -0.778774 0.48777 0.484463 -0.746183 0.456626 
0.704983 -0.584238 0.402076 0.874764 -0.407982 0.261416 0.923724 -0.297811 0.240919 
0.981093 -0.136305 0.137393 0.986164 -0.0658076 0.152154 0.98085 0.168139 0.0982996 
0.962669 0.262507 0.0660176 0.929324 0.367929 0.0313822 0.846277 0.529079 0.0623762 
0.747353 0.628367 0.215913 0.673628 0.686387 0.274041 0.519579 0.790837 0.323441 
-0.178568 0.18314 0.966733 0.237852 0.936834 0.256453 -0.118004 0.958966 0.257797 
-0.315263 0.907349 0.278077 -0.403982 0.856186 0.322093 -0.818956 -0.135548 0.557618 
-0.784744 -0.24207 0.570596 -0.606928 -0.462977 0.64598 0.402377 -0.816538 0.413954 
0.749812 -0.582445 0.31391 0.99472 -0.0611902 0.0823846 0.991731 0.12037 0.0445159 
0.980119 0.198184 0.00946757 0.880678 0.473694 -0.00450529 0.797354 -0.558631 0.228382 
0.750364 0.651 0.114688 0.69987 0.696176 0.159752 0.470243 0.842697 0.262171 
0.206484 0.963512 0.170323 0.132494 0.980559 0.144737 -0.0350161 0.901683 0.430977 
0.0328403 0.993746 0.106726 -0.0517674 0.984831 0.165612 -0.217611 0.950998 0.219656 
-0.40136 0.884224 0.238867 -0.732868 0.444929 0.514726 -0.914885 0.0806575 0.395575 
-0.802428 -0.310418 0.509658 -0.37125 -0.756033 0.539061 -0.0192178 -0.897965 0.439648 
0.139653 -0.88665 0.440851 0.229798 -0.857085 0.461083 0.323273 -0.841237 0.433376 
0.457614 -0.799019 0.390075 0.528748 -0.761045 0.375814 0.920346 -0.355699 0.162606 
0.964758 -0.234748 0.118891 0.988874 -0.13785 0.0559024 0.998541 0.0379644 0.0384126 
0.668697 0.735289 0.110425 0.555745 0.802594 0.216771 0.28947 0.942201 0.168715 
-0.128448 0.980071 0.151529 -0.306877 0.94577 0.10652 -0.375914 -0.529556 0.760434 
-0.308183 0.932603 0.187818 0.226763 0.620074 0.751057 -0.481101 0.824186 0.298764 
-0.551421 0.75793 0.348536 -0.858275 0.310116 0.408891 -0.900211 -0.012063 0.435287 
-0.876885 -0.108716 0.468245 -0.851255 -0.222635 0.475183 -0.44462 -0.724406 0.52683 
-0.201112 -0.861204 0.466777 0.546191 -0.780471 0.304204 0.667486 -0.657756 0.349027 
0.861532 -0.473839 0.182316 0.99661 0.0504341 -0.0649982 0.992353 0.12032 -0.0275461 
-0.869649 0.192878 0.454433 0.951459 0.304405 -0.0454188 0.90646 0.415556 -0.0751221 
0.853622 0.509175 -0.109865 0.782942 0.620992 0.037018 0.472297 0.864008 0.174427 
0.2057 0.975021 0.0837981 -0.557461 0.783984 0.273142 -0.609604 0.700448 0.371155 
-0.703861 0.500689 0.503876 -0.784996 0.428147 0.44774 -0.853567 0.370238 0.366535 
-0.904867 0.237151 0.353519 -0.950206 0.0824393 0.300521 -0.899705 -0.168446 0.402686 
-0.2759 -0.867255 0.414425 -0.223707 0.966496 0.125856 0.0709598 -0.930272 0.359943 
0.279479 0.282305 0.917712 0.187302 -0.910035 0.369802 0.332164 -0.878446 0.343511 
0.433658 -0.282554 0.855631 0.734267 -0.638427 0.230788 -0.274508 0.564868 0.778183 
0.859474 -0.502463 0.0939921 0.906794 -0.412691 0.086081 0.94952 -0.309605 0.0505649 
0.983954 0.131457 -0.120636 0.949826 0.286307 -0.125935 0.791686 0.596169 -0.133476 
0.715124 0.697686 0.0427921 0.651109 0.758312 0.0319327 0.545441 0.829014 0.123414 
0.30191 0.950666 0.071302 0.0675182 -0.884428 0.461767 0.11553 0.9913 0.0630725 
-0.0538186 0.55948 0.827095 -0.347054 -0.21699 -0.912397 -0.394938 0.90734 0.144079 
-0.503324 0.841251 0.197386 -0.726501 0.52938 0.438124 -0.827705 0.439073 0.349456 
-0.899315 0.301254 0.316985 -0.930475 0.156039 0.331464 -0.923801 -0.0865944 0.372952 
-0.836715 -0.330372 0.436764 -0.206722 -0.904093 0.374008 0.249643 -0.922894 0.293165 
0.410747 -0.856118 0.313606 -0.308861 -0.894361 0.323611 0.798753 -0.586685 0.133396 
-0.361931 -0.830615 0.423184 0.923128 -0.384475 0.00375331 0.990818 -0.0988651 -0.0922274 
-0.458804 -0.431712 0.77661 0.993434 -0.0183542 -0.112926 0.923485 0.360145 -0.132176 
0.716785 0.681476 -0.147678 0.383876 0.91367 0.133591 0.752216 0.656401 -0.057525 
0.574819 0.817232 0.0414191 -0.823365 0.536074 0.186265 0.47653 0.876108 0.0731691 
0.98521 0.0603979 -0.160356 -0.0124993 0.999865 0.0107036 -0.152922 0.986733 0.0545247 
-0.359312 0.932218 0.0431852 -0.604852 0.769121 0.206413 -0.631933 0.720528 0.285482 
-0.700747 0.596528 0.39129 -0.879767 0.384075 0.280173 -0.936487 0.222344 0.271211 
-0.121473 0.661013 0.740477 -0.895543 -0.260601 0.360679 -0.566963 -0.60351 0.56065 
-0.597154 -0.626225 0.501248 -0.528086 -0.684976 0.501929 -0.495651 -0.753472 0.431984 
-0.00510625 -0.964331 0.26465 0.072586 -0.963399 0.258056 0.153697 -0.948575 0.276736 
0.324049 -0.917955 0.228803 0.501232 -0.830821 0.241873 0.880919 -0.472917 0.0181825 
0.947243 -0.312146 -0.0727712 0.816697 -0.499191 0.289508 0.981478 -0.189344 -0.0291381 
0.984276 -0.0758662 -0.159513 0.970566 0.131914 -0.201496 0.220418 0.203004 0.954047 
0.959305 0.217434 -0.180156 0.820506 0.529517 -0.215363 0.7559 0.612204 -0.231994 
0.425664 0.904869 0.00467125 -0.112659 -0.540961 0.833468 0.1598 0.987121 -0.00745254 
-0.181026 0.982929 -0.0328666 -0.473248 0.877767 0.0745785 0.977081 -0.031028 0.210592 
-0.572314 0.811223 0.119892 -0.596627 0.0101584 0.802454 -0.671405 0.657955 0.341044 
-0.546635 -0.261073 0.795633 -0.770436 0.527402 0.358156 0.521713 -0.307877 0.79563 
-0.925828 0.300782 0.228852 -0.974817 0.0255576 0.221539 0.102474 -0.153601 0.982805 
-0.959694 -0.0738329 0.271177 -0.857948 -0.366578 0.359926 -0.500001 -0.786451 0.362621 
-0.416877 -0.845737 0.33308 -0.208753 -0.934531 0.288226 -0.110748 -0.959695 0.258303 
0.0342822 -0.979754 0.19725 0.413843 -0.885727 0.210288 0.567018 -0.807573 0.162222 
-0.289432 -0.926853 0.239109 0.767555 -0.639581 0.042373 0.82574 -0.563176 0.0314049 
-0.31972 0.814653 0.483859 0.976459 -0.155388 -0.14961 0.978214 -0.017234 -0.206884 
0.948514 0.160035 -0.273332 0.54286 0.831128 -0.120535 0.333024 0.94282 -0.0136457 
0.14075 0.986154 -0.0876905 0.0623579 0.997577 -0.0308424 -0.0910249 0.99544 -0.0285222 
-0.561243 0.826585 0.0419835 0.199145 -0.283917 0.937941 -0.650459 0.748295 0.130218 
-0.727849 0.607579 0.317936 -0.874007 0.445491 0.194036 -0.909271 0.370914 0.188807 
-0.940263 0.313086 0.133723 -0.957149 0.227569 0.179106 -0.963862 -0.151926 0.218833 
-0.120692 -0.348484 0.929512 -0.937063 -0.238865 0.254668 -0.901565 -0.329004 0.280956 
-0.810566 -0.452198 0.372155 -0.75008 -0.488556 0.44575 -0.660557 -0.561957 0.497865 
-0.208478 -0.955559 0.208432 0.380142 0.893382 0.239499 -0.1362 -0.975421 0.173216 
-0.046071 -0.984806 0.167436 -0.0290616 0.344323 0.938401 0.208507 -0.959176 0.191066 
0.290404 -0.945962 0.144297 -0.548273 0.707737 0.44554 0.375381 -0.917253 0.13318 
0.939035 -0.296656 -0.173808 0.95007 -0.223359 -0.217895 0.965917 0.0660124 -0.250295 
0.918789 0.264633 -0.292909 -0.665278 0.576862 0.473958 0.875625 0.376712 -0.302274 
0.0234773 -0.0934663 0.995346 0.826921 0.475207 -0.300632 0.0126182 0.990856 -0.134336 
-0.0997996 -0.858847 0.502416 -0.0662743 0.989326 -0.129778 -0.244778 0.966552 -0.0765629 
-0.328299 0.942891 -0.0563615 -0.429145 0.902672 -0.0319141 -0.863038 0.0674883 0.50061 
-0.524934 0.850812 -0.0237299 -0.714171 0.651314 0.256419 -0.776515 0.573226 0.261605 
-0.992697 0.000188888 0.120632 -0.983015 -0.069547 0.169838 0.0180871 0.00513245 0.999823 
-0.960455 -0.217151 0.174275 -0.895671 -0.388199 0.216966 0.187011 -0.00365153 0.982351 
-0.491687 0.331194 0.805329 -0.831324 0.481204 0.278106 -0.772569 -0.513493 0.373448 
-0.194287 -0.973397 0.121451 -0.107474 -0.990009 0.0912742 0.0412857 -0.991517 0.12325 
0.481373 -0.867678 0.124155 0.584401 -0.808414 0.0703001 0.786691 -0.615756 -0.0442901 
0.869566 -0.470626 -0.14955 0.913134 -0.375002 -0.159872 0.962419 -0.117949 -0.244618 
0.882584 0.269346 -0.385355 0.874179 0.324296 -0.361446 0.290705 -0.451488 0.843593 
0.7614 0.52352 -0.382356 0.230982 0.695484 0.680404 0.579354 0.788184 -0.207643 
0.503442 0.841837 -0.194567 -0.0779016 -0.629977 0.772697 0.439967 0.887829 -0.134862 
0.338455 0.935163 -0.104491 0.0906058 0.985458 -0.143746 -0.166532 0.978437 -0.122185 
-0.398357 0.908245 -0.128072 0.283155 0.0233338 0.95879 -0.570059 0.81604 -0.0954528 
-0.687486 0.701645 0.187236 0.412791 0.908958 -0.0582984 -0.762125 0.624838 0.169536 
0.852158 -0.520283 -0.0559636 -0.861208 0.494075 0.119212 -0.44398 -0.800491 0.402611 
-0.96895 0.23251 0.0841119 -0.994835 0.069057 0.0743956 -0.993796 -0.0757445 0.0814449 
-0.93454 -0.299576 0.192065 -0.880538 -0.449947 0.148995 -0.856213 -0.463673 0.22783 
-0.626655 -0.646379 0.435314 -0.422441 -0.890867 0.167031 -0.303873 -0.939261 0.159532 
0.128141 -0.985104 0.114676 0.218342 -0.970669 0.100643 0.415484 -0.908178 0.0508557 
-0.327845 -0.691402 0.643802 0.829763 -0.512668 -0.2206 0.904594 -0.421132 -0.066013 
0.932463 -0.121201 -0.340328 0.904623 -0.0776636 -0.419077 0.947732 -0.0282867 -0.317812 
0.935525 0.0766646 -0.344841 0.907586 0.181491 -0.378614 0.799277 0.411368 -0.438102 
0.813395 0.441737 -0.378493 0.751136 0.475829 -0.457583 0.71752 0.609214 -0.337672 
0.670867 0.700431 -0.243586 0.351543 0.916434 -0.191225 0.267657 0.948229 -0.170943 
-0.493243 0.862273 -0.114879 -0.988663 0.146032 0.0349267 0.836029 -0.0159685 0.548453 
-0.999184 -0.0188365 0.0357164 -0.982333 -0.153081 0.107647 -0.802523 -0.515837 0.299781 
-0.720767 -0.579824 0.379868 -0.659537 -0.677967 0.32461 -0.584498 -0.781119 0.21958 
-0.361882 -0.929003 0.0774242 0.0692745 -0.997047 0.0331336 0.157387 -0.986196 0.0514446 
0.222221 -0.974876 0.0153262 0.313138 -0.947974 0.0573647 -0.717148 0.113838 0.687561 
0.511423 -0.859304 -0.00659492 0.874379 -0.41007 -0.259432 0.925928 -0.214049 -0.311192 
0.492006 -0.505197 0.709018 0.519332 0.807866 -0.278653 0.0422375 0.977211 -0.208028 
-0.0295114 0.975535 -0.217855 -0.114602 0.970009 -0.214358 -0.164261 0.94161 -0.293921 
-0.197843 0.956957 -0.212348 -0.37917 0.904643 -0.194552 -0.728639 0.680843 0.0744162 
-0.869388 0.493097 0.0319305 -0.910925 0.412508 -0.00722673 -0.973872 0.227032 0.00551449 
-0.978494 -0.205033 0.0226105 -0.961494 -0.254147 0.104592 -0.822379 -0.535076 0.193355 
-0.998871 -0.0259189 -0.0398211 -0.638836 -0.727445 0.250426 -0.594683 -0.79137 0.141724 
-0.519572 -0.839328 0.159919 -0.461055 -0.884132 0.0757501 -0.412984 -0.910727 0.00460011 
-0.25487 -0.965067 0.0607193 -0.166546 -0.98518 0.0410109 -0.00469603 -0.999307 -0.0369137 
0.646923 -0.349921 0.677529 0.29146 -0.956281 -0.024039 0.474998 -0.874508 -0.0980414 
0.343333 0.28701 -0.894286 0.771099 -0.599915 -0.213325 0.826357 -0.475198 -0.302195 
0.888325 -0.313169 -0.335862 0.888179 -0.239637 -0.392061 0.897247 -0.167764 -0.408415 
0.904225 0.00401982 -0.427037 0.888956 0.0951161 -0.448006 0.863708 0.171134 -0.474048 
0.854252 0.241424 -0.4604 0.832486 0.333738 -0.442251 0.597422 0.696705 -0.397102 
0.599405 0.739389 -0.306622 -0.118153 -0.901555 0.416219 0.435693 0.868111 -0.237812 
0.225148 0.941119 -0.252198 -0.0250194 -0.997866 0.0603049 0.124184 0.962091 -0.242814 
0.917176 -0.312903 -0.24674 -0.459163 0.862686 -0.211995 -0.564982 0.805538 -0.178614 
0.367876 0.88491 -0.285658 -0.94654 0.321961 0.0200658 -0.984207 0.16841 -0.0545479 
-0.750018 -0.607579 0.261384 -0.702297 -0.679757 0.211445 0.0647496 -0.996626 -0.050432 
0.139426 -0.990051 -0.0189398 0.388818 -0.920573 -0.0369684 0.638206 -0.752814 -0.161136 
0.650283 -0.712475 -0.263652 0.714972 -0.655003 -0.244514 0.785367 -0.544956 -0.293636 
0.194881 -0.105471 0.97514 0.836996 -0.404297 -0.368757 0.848353 0.0327785 -0.528415 
-0.52921 -0.094776 -0.843181 0.810136 0.214779 -0.545481 0.80244 0.294588 -0.518949 